LIGGGHTS (Version LIGGGHTS-PUBLIC 3.8.0, compiled 2025-05-22-11:49:02 by richardanderson, git commit 3d5c00f20519e6bb6eb6756f51f1ad36564e649d)
