LIGGGHTS (Version LIGGGHTS-PUBLIC 3.8.0, compiled 2025-05-22-11:49:02 by richardanderson, git commit 3d5c00f20519e6bb6eb6756f51f1ad36564e649d)
#Simple chute wear test

clear
atom_style    granular
atom_modify   map array
boundary      f f f
newton        off

communicate   single vel yes

units         si

region        domain block -1.5 2.5 -1.5 2.5 -13.0 1.0 units box
create_box    1 domain
Created orthogonal box = (-1.5 -1.5 -13) to (2.5 2.5 1)
  1 by 1 by 1 MPI processor grid

neighbor      0.2 bin
neigh_modify  delay 0


#Material properties required for new pair styles

fix  m1 all property/global youngsModulus peratomtype 5.e6
fix  m2 all property/global poissonsRatio peratomtype 0.45
fix  m3 all property/global coefficientRestitution peratomtypepair 1 0.3
fix  m4 all property/global coefficientFriction peratomtypepair 1 0.5
fix  m5 all property/global k_finnie peratomtypepair 1 1.0

#New pair style
pair_style  gran model hertz tangential history #Hertzian without cohesion
pair_coeff  * *

timestep    0.00001

fix  gravi all gravity 9.81 vector 0.0 0.0 -1.0

#the chute

fix cad     all mesh/surface/stress file meshes/GPBR_smooth_ascii_hollow.stl type 1
fix granwalls all wall/gran model hertz tangential history mesh n_meshes 1 meshes cad
fix  inface all mesh/surface file meshes/insertion_face.stl type 1

#distributions for insertion
#fix  pts1 all particletemplate/sphere 15485863 atom_type 1 density constant 2500 radius constant 0.0015
#fix  pts2 all particletemplate/sphere 15485867 atom_type 1 density constant 2500 radius constant 0.0025
#fix  pdd1 all particledistribution/discrete 32452843  2 pts1 0.3 pts2 0.7
fix  peb all particletemplate/sphere  15485863 atom_type 1 density constant 2000 radius constant 0.03
fix  pdd1 all particledistribution/discrete 32452843 1 peb 1.0

#region and insertion
group  nve_group region domain
0 atoms in group nve_group
region bc cylinder z 0.0 0.0 0.015 0.05 0.12 units box

fix   plugwall all wall/gran model hertz tangential history primitive type 1 zplane -11.5

#particle insertion
#fix    ins nve_group insert/stream seed 32452867 distributiontemplate pdd1 nparticles 6000 massrate 24.6 insert_every 200 overlapcheck yes all_in no vel gaussian -2.5 2.5 -2.5 2.5 -15.0 -15.0 insertion_face inface
fix    ins nve_group insert/stream seed 32452867 distributiontemplate pdd1 nparticles 200 massrate 24.6 insert_every 100 overlapcheck yes all_in no vel constant 0 0 -60.0 insertion_face inface

#apply nve integration to all particles that are inserted as single particles
fix    integr nve_group nve/sphere

#output settings, include total thermal energy
compute       1 all erotate/sphere
thermo_style  custom step atoms ke c_1 vol
thermo        1000
thermo_modify lost ignore norm no

#insert the first particles so that dump is not empty
run    1
Setting up run at Sun May 25 14:49:58 2025

INFO: Particle insertion ins: 0.108756 particles every 100 steps - particle rate 108.755878, (mass rate 2.460000e+01)
      200 particles (mass 4.523893e+01) within 183800 steps
Memory usage per processor = 7.25824 Mbytes
    Step    Atoms         KinEng              1         Volume 
       0        0              0              0            224 
INFO: Particle insertion ins: inserted 1 particle templates (mass 2.261947e-01) at step 1
 - a total of 1 particle templates (mass 2.261947e-01) inserted so far.
       1        1      407.15041              0            224 
Loop time of 0.00954795 on 1 procs for 1 steps with 1 atoms, finish time Sun May 25 14:49:58 2025


Pair  time (%) = 9.53674e-07 (0.00998826)
Neigh time (%) = 0.000146866 (1.53819)
Comm  time (%) = 0 (0)
Outpt time (%) = 2.86102e-06 (0.0299648)
Other time (%) = 0.00939727 (98.4219)

Nlocal:    1 ave 1 max 1 min
Histogram: 1 0 0 0 0 0 0 0 0 0
Nghost:    0 ave 0 max 0 min
Histogram: 1 0 0 0 0 0 0 0 0 0
Neighs:    0 ave 0 max 0 min
Histogram: 1 0 0 0 0 0 0 0 0 0

Total # of neighbors = 0
Ave neighs/atom = 0
Neighbor list builds = 1
Dangerous builds = 0
dump dmp all custom 200 post/chute.dat id type type x y z ix iy iz vx vy vz fx fy fz omegax omegay omegaz radius

#insert particles
run    2500000 upto
Setting up run at Sun May 25 14:49:58 2025

Memory usage per processor = 10.9623 Mbytes
    Step    Atoms         KinEng              1         Volume 
       1        1      407.15041              0            224 
WARNING: Particle insertion: Inserting no particle - check particle insertion settings (../fix_insert.cpp:703)
WARNING: Particle insertion: Inserting no particle - check particle insertion settings (../fix_insert.cpp:703)
WARNING: Particle insertion: Inserting no particle - check particle insertion settings (../fix_insert.cpp:703)
WARNING: Particle insertion: Inserting no particle - check particle insertion settings (../fix_insert.cpp:703)
WARNING: Particle insertion: Inserting no particle - check particle insertion settings (../fix_insert.cpp:703)
WARNING: Particle insertion: Inserting no particle - check particle insertion settings (../fix_insert.cpp:703)
WARNING: Particle insertion: Inserting no particle - check particle insertion settings (../fix_insert.cpp:703)
WARNING: Particle insertion: Inserting no particle - check particle insertion settings (../fix_insert.cpp:703)
WARNING: Particle insertion: Inserting no particle - check particle insertion settings (../fix_insert.cpp:703)
    1000        1       408.4102              0            224 
WARNING: Particle insertion: Inserting no particle - check particle insertion settings (../fix_insert.cpp:703)
WARNING: Particle insertion: Inserting no particle - check particle insertion settings (../fix_insert.cpp:703)
WARNING: Particle insertion: Inserting no particle - check particle insertion settings (../fix_insert.cpp:703)
WARNING: Particle insertion: Inserting no particle - check particle insertion settings (../fix_insert.cpp:703)
WARNING: Particle insertion: Inserting no particle - check particle insertion settings (../fix_insert.cpp:703)
WARNING: Particle insertion: Inserting no particle - check particle insertion settings (../fix_insert.cpp:703)
WARNING: Particle insertion: Inserting no particle - check particle insertion settings (../fix_insert.cpp:703)
WARNING: Particle insertion: Inserting no particle - check particle insertion settings (../fix_insert.cpp:703)
WARNING: Particle insertion: Inserting no particle - check particle insertion settings (../fix_insert.cpp:703)
WARNING: Particle insertion: Inserting no particle - check particle insertion settings (../fix_insert.cpp:703)
    2000        1      409.74473              0            224 
WARNING: Particle insertion: Inserting no particle - check particle insertion settings (../fix_insert.cpp:703)
WARNING: Particle insertion: Inserting no particle - check particle insertion settings (../fix_insert.cpp:703)
WARNING: Particle insertion: Inserting no particle - check particle insertion settings (../fix_insert.cpp:703)
WARNING: Particle insertion: Inserting no particle - check particle insertion settings (../fix_insert.cpp:703)
WARNING: Particle insertion: Inserting no particle - check particle insertion settings (../fix_insert.cpp:703)
WARNING: Particle insertion: Inserting no particle - check particle insertion settings (../fix_insert.cpp:703)
WARNING: Particle insertion: Inserting no particle - check particle insertion settings (../fix_insert.cpp:703)
WARNING: Particle insertion: Inserting no particle - check particle insertion settings (../fix_insert.cpp:703)
WARNING: Particle insertion: Inserting no particle - check particle insertion settings (../fix_insert.cpp:703)
WARNING: Particle insertion: Inserting no particle - check particle insertion settings (../fix_insert.cpp:703)
    3000        1      411.08144              0            224 
WARNING: Particle insertion: Inserting no particle - check particle insertion settings (../fix_insert.cpp:703)
INFO: Particle insertion ins: inserted 1 particle templates (mass 2.261947e-01) at step 3101
 - a total of 2 particle templates (mass 4.523893e-01) inserted so far.
WARNING: Particle insertion: Inserting no particle - check particle insertion settings (../fix_insert.cpp:703)
WARNING: Particle insertion: Inserting no particle - check particle insertion settings (../fix_insert.cpp:703)
WARNING: Particle insertion: Inserting no particle - check particle insertion settings (../fix_insert.cpp:703)
WARNING: Particle insertion: Inserting no particle - check particle insertion settings (../fix_insert.cpp:703)
WARNING: Particle insertion: Inserting no particle - check particle insertion settings (../fix_insert.cpp:703)
WARNING: Particle insertion: Inserting no particle - check particle insertion settings (../fix_insert.cpp:703)
WARNING: Particle insertion: Inserting no particle - check particle insertion settings (../fix_insert.cpp:703)
WARNING: Particle insertion: Inserting no particle - check particle insertion settings (../fix_insert.cpp:703)
    4000        2      820.67719              0            224 
WARNING: Particle insertion: Inserting no particle - check particle insertion settings (../fix_insert.cpp:703)
WARNING: Particle insertion: Inserting no particle - check particle insertion settings (../fix_insert.cpp:703)
INFO: Particle insertion ins: inserted 1 particle templates (mass 2.261947e-01) at step 4201
 - a total of 3 particle templates (mass 6.785840e-01) inserted so far.
INFO: Particle insertion ins: inserted 1 particle templates (mass 2.261947e-01) at step 4301
 - a total of 4 particle templates (mass 9.047787e-01) inserted so far.
WARNING: Particle insertion: Inserting no particle - check particle insertion settings (../fix_insert.cpp:703)
WARNING: Particle insertion: Inserting no particle - check particle insertion settings (../fix_insert.cpp:703)
WARNING: Particle insertion: Inserting no particle - check particle insertion settings (../fix_insert.cpp:703)
WARNING: Particle insertion: Inserting no particle - check particle insertion settings (../fix_insert.cpp:703)
INFO: Particle insertion ins: inserted 1 particle templates (mass 2.261947e-01) at step 4801
 - a total of 5 particle templates (mass 1.130973e+00) inserted so far.
WARNING: Particle insertion: Inserting no particle - check particle insertion settings (../fix_insert.cpp:703)
    5000        5       2046.552              0            224 
WARNING: Particle insertion: Inserting no particle - check particle insertion settings (../fix_insert.cpp:703)
WARNING: Particle insertion: Inserting no particle - check particle insertion settings (../fix_insert.cpp:703)
WARNING: Particle insertion: Inserting no particle - check particle insertion settings (../fix_insert.cpp:703)
WARNING: Particle insertion: Inserting no particle - check particle insertion settings (../fix_insert.cpp:703)
WARNING: Particle insertion: Inserting no particle - check particle insertion settings (../fix_insert.cpp:703)
WARNING: Particle insertion: Inserting no particle - check particle insertion settings (../fix_insert.cpp:703)
WARNING: Particle insertion: Inserting no particle - check particle insertion settings (../fix_insert.cpp:703)
WARNING: Particle insertion: Inserting no particle - check particle insertion settings (../fix_insert.cpp:703)
WARNING: Particle insertion: Inserting no particle - check particle insertion settings (../fix_insert.cpp:703)
WARNING: Particle insertion: Inserting no particle - check particle insertion settings (../fix_insert.cpp:703)
    6000        5       2053.232              0            224 
INFO: Particle insertion ins: inserted 1 particle templates (mass 2.261947e-01) at step 6001
 - a total of 6 particle templates (mass 1.357168e+00) inserted so far.
WARNING: Particle insertion: Inserting no particle - check particle insertion settings (../fix_insert.cpp:703)
WARNING: Particle insertion: Inserting no particle - check particle insertion settings (../fix_insert.cpp:703)
WARNING: Particle insertion: Inserting no particle - check particle insertion settings (../fix_insert.cpp:703)
WARNING: Particle insertion: Inserting no particle - check particle insertion settings (../fix_insert.cpp:703)
WARNING: Particle insertion: Inserting no particle - check particle insertion settings (../fix_insert.cpp:703)
WARNING: Particle insertion: Inserting no particle - check particle insertion settings (../fix_insert.cpp:703)
WARNING: Particle insertion: Inserting no particle - check particle insertion settings (../fix_insert.cpp:703)
WARNING: Particle insertion: Inserting no particle - check particle insertion settings (../fix_insert.cpp:703)
INFO: Particle insertion ins: inserted 1 particle templates (mass 2.261947e-01) at step 6901
 - a total of 7 particle templates (mass 1.583363e+00) inserted so far.
    7000        7      2875.4174              0            224 
INFO: Particle insertion ins: inserted 1 particle templates (mass 2.261947e-01) at step 7001
 - a total of 8 particle templates (mass 1.809557e+00) inserted so far.
WARNING: Particle insertion: Inserting no particle - check particle insertion settings (../fix_insert.cpp:703)
WARNING: Particle insertion: Inserting no particle - check particle insertion settings (../fix_insert.cpp:703)
WARNING: Particle insertion: Inserting no particle - check particle insertion settings (../fix_insert.cpp:703)
WARNING: Particle insertion: Inserting no particle - check particle insertion settings (../fix_insert.cpp:703)
INFO: Particle insertion ins: inserted 1 particle templates (mass 2.261947e-01) at step 7501
 - a total of 9 particle templates (mass 2.035752e+00) inserted so far.
WARNING: Particle insertion: Inserting no particle - check particle insertion settings (../fix_insert.cpp:703)
WARNING: Particle insertion: Inserting no particle - check particle insertion settings (../fix_insert.cpp:703)
WARNING: Particle insertion: Inserting no particle - check particle insertion settings (../fix_insert.cpp:703)
WARNING: Particle insertion: Inserting no particle - check particle insertion settings (../fix_insert.cpp:703)
    8000        9      3700.8346              0            224 
WARNING: Particle insertion: Inserting no particle - check particle insertion settings (../fix_insert.cpp:703)
WARNING: Particle insertion: Inserting no particle - check particle insertion settings (../fix_insert.cpp:703)
WARNING: Particle insertion: Inserting no particle - check particle insertion settings (../fix_insert.cpp:703)
WARNING: Particle insertion: Inserting no particle - check particle insertion settings (../fix_insert.cpp:703)
WARNING: Particle insertion: Inserting no particle - check particle insertion settings (../fix_insert.cpp:703)
WARNING: Particle insertion: Inserting no particle - check particle insertion settings (../fix_insert.cpp:703)
WARNING: Particle insertion: Inserting no particle - check particle insertion settings (../fix_insert.cpp:703)
WARNING: Particle insertion: Inserting no particle - check particle insertion settings (../fix_insert.cpp:703)
WARNING: Particle insertion: Inserting no particle - check particle insertion settings (../fix_insert.cpp:703)
WARNING: Particle insertion: Inserting no particle - check particle insertion settings (../fix_insert.cpp:703)
    9000        9      3712.8863              0            224 
WARNING: Particle insertion: Inserting no particle - check particle insertion settings (../fix_insert.cpp:703)
WARNING: Particle insertion: Inserting no particle - check particle insertion settings (../fix_insert.cpp:703)
WARNING: Particle insertion: Inserting no particle - check particle insertion settings (../fix_insert.cpp:703)
WARNING: Particle insertion: Inserting no particle - check particle insertion settings (../fix_insert.cpp:703)
WARNING: Particle insertion: Inserting no particle - check particle insertion settings (../fix_insert.cpp:703)
WARNING: Particle insertion: Inserting no particle - check particle insertion settings (../fix_insert.cpp:703)
INFO: Particle insertion ins: inserted 1 particle templates (mass 2.261947e-01) at step 9601
 - a total of 10 particle templates (mass 2.261947e+00) inserted so far.
WARNING: Particle insertion: Inserting no particle - check particle insertion settings (../fix_insert.cpp:703)
WARNING: Particle insertion: Inserting no particle - check particle insertion settings (../fix_insert.cpp:703)
WARNING: Particle insertion: Inserting no particle - check particle insertion settings (../fix_insert.cpp:703)
   10000       10      4132.4402              0            224 
WARNING: Particle insertion: Inserting no particle - check particle insertion settings (../fix_insert.cpp:703)
WARNING: Particle insertion: Inserting no particle - check particle insertion settings (../fix_insert.cpp:703)
WARNING: Particle insertion: Inserting no particle - check particle insertion settings (../fix_insert.cpp:703)
WARNING: Particle insertion: Inserting no particle - check particle insertion settings (../fix_insert.cpp:703)
WARNING: Particle insertion: Inserting no particle - check particle insertion settings (../fix_insert.cpp:703)
WARNING: Particle insertion: Inserting no particle - check particle insertion settings (../fix_insert.cpp:703)
WARNING: Particle insertion: Inserting no particle - check particle insertion settings (../fix_insert.cpp:703)
WARNING: Particle insertion: Inserting no particle - check particle insertion settings (../fix_insert.cpp:703)
WARNING: Particle insertion: Inserting no particle - check particle insertion settings (../fix_insert.cpp:703)
WARNING: Particle insertion: Inserting no particle - check particle insertion settings (../fix_insert.cpp:703)
   11000       10       4145.864              0            224 
WARNING: Particle insertion: Inserting no particle - check particle insertion settings (../fix_insert.cpp:703)
WARNING: Particle insertion: Inserting no particle - check particle insertion settings (../fix_insert.cpp:703)
WARNING: Particle insertion: Inserting no particle - check particle insertion settings (../fix_insert.cpp:703)
WARNING: Particle insertion: Inserting no particle - check particle insertion settings (../fix_insert.cpp:703)
WARNING: Particle insertion: Inserting no particle - check particle insertion settings (../fix_insert.cpp:703)
INFO: Particle insertion ins: inserted 1 particle templates (mass 2.261947e-01) at step 11501
 - a total of 11 particle templates (mass 2.488141e+00) inserted so far.
WARNING: Particle insertion: Inserting no particle - check particle insertion settings (../fix_insert.cpp:703)
WARNING: Particle insertion: Inserting no particle - check particle insertion settings (../fix_insert.cpp:703)
WARNING: Particle insertion: Inserting no particle - check particle insertion settings (../fix_insert.cpp:703)
WARNING: Particle insertion: Inserting no particle - check particle insertion settings (../fix_insert.cpp:703)
   12000       11      4566.9415              0            224 
WARNING: Particle insertion: Inserting no particle - check particle insertion settings (../fix_insert.cpp:703)
WARNING: Particle insertion: Inserting no particle - check particle insertion settings (../fix_insert.cpp:703)
WARNING: Particle insertion: Inserting no particle - check particle insertion settings (../fix_insert.cpp:703)
WARNING: Particle insertion: Inserting no particle - check particle insertion settings (../fix_insert.cpp:703)
WARNING: Particle insertion: Inserting no particle - check particle insertion settings (../fix_insert.cpp:703)
WARNING: Particle insertion: Inserting no particle - check particle insertion settings (../fix_insert.cpp:703)
WARNING: Particle insertion: Inserting no particle - check particle insertion settings (../fix_insert.cpp:703)
WARNING: Particle insertion: Inserting no particle - check particle insertion settings (../fix_insert.cpp:703)
INFO: Particle insertion ins: inserted 1 particle templates (mass 2.261947e-01) at step 12801
 - a total of 12 particle templates (mass 2.714336e+00) inserted so far.
WARNING: Particle insertion: Inserting no particle - check particle insertion settings (../fix_insert.cpp:703)
   13000       12      4989.0037              0            224 
INFO: Particle insertion ins: inserted 1 particle templates (mass 2.261947e-01) at step 13001
 - a total of 13 particle templates (mass 2.940531e+00) inserted so far.
WARNING: Particle insertion: Inserting no particle - check particle insertion settings (../fix_insert.cpp:703)
WARNING: Particle insertion: Inserting no particle - check particle insertion settings (../fix_insert.cpp:703)
WARNING: Particle insertion: Inserting no particle - check particle insertion settings (../fix_insert.cpp:703)
WARNING: Particle insertion: Inserting no particle - check particle insertion settings (../fix_insert.cpp:703)
INFO: Particle insertion ins: inserted 1 particle templates (mass 2.261947e-01) at step 13501
 - a total of 14 particle templates (mass 3.166725e+00) inserted so far.
WARNING: Particle insertion: Inserting no particle - check particle insertion settings (../fix_insert.cpp:703)
WARNING: Particle insertion: Inserting no particle - check particle insertion settings (../fix_insert.cpp:703)
WARNING: Particle insertion: Inserting no particle - check particle insertion settings (../fix_insert.cpp:703)
WARNING: Particle insertion: Inserting no particle - check particle insertion settings (../fix_insert.cpp:703)
   14000       14       5821.111              0            224 
WARNING: Particle insertion: Inserting no particle - check particle insertion settings (../fix_insert.cpp:703)
WARNING: Particle insertion: Inserting no particle - check particle insertion settings (../fix_insert.cpp:703)
INFO: Particle insertion ins: inserted 1 particle templates (mass 2.261947e-01) at step 14201
 - a total of 15 particle templates (mass 3.392920e+00) inserted so far.
INFO: Particle insertion ins: inserted 1 particle templates (mass 2.261947e-01) at step 14301
 - a total of 16 particle templates (mass 3.619115e+00) inserted so far.
INFO: Particle insertion ins: inserted 1 particle templates (mass 2.261947e-01) at step 14401
 - a total of 17 particle templates (mass 3.845309e+00) inserted so far.
WARNING: Particle insertion: Inserting no particle - check particle insertion settings (../fix_insert.cpp:703)
WARNING: Particle insertion: Inserting no particle - check particle insertion settings (../fix_insert.cpp:703)
WARNING: Particle insertion: Inserting no particle - check particle insertion settings (../fix_insert.cpp:703)
WARNING: Particle insertion: Inserting no particle - check particle insertion settings (../fix_insert.cpp:703)
WARNING: Particle insertion: Inserting no particle - check particle insertion settings (../fix_insert.cpp:703)
   15000       17      7063.6477              0            224 
WARNING: Particle insertion: Inserting no particle - check particle insertion settings (../fix_insert.cpp:703)
WARNING: Particle insertion: Inserting no particle - check particle insertion settings (../fix_insert.cpp:703)
INFO: Particle insertion ins: inserted 1 particle templates (mass 2.261947e-01) at step 15201
 - a total of 18 particle templates (mass 4.071504e+00) inserted so far.
INFO: Particle insertion ins: inserted 1 particle templates (mass 2.261947e-01) at step 15301
 - a total of 19 particle templates (mass 4.297699e+00) inserted so far.
WARNING: Particle insertion: Inserting no particle - check particle insertion settings (../fix_insert.cpp:703)
WARNING: Particle insertion: Inserting no particle - check particle insertion settings (../fix_insert.cpp:703)
WARNING: Particle insertion: Inserting no particle - check particle insertion settings (../fix_insert.cpp:703)
WARNING: Particle insertion: Inserting no particle - check particle insertion settings (../fix_insert.cpp:703)
WARNING: Particle insertion: Inserting no particle - check particle insertion settings (../fix_insert.cpp:703)
INFO: Particle insertion ins: inserted 1 particle templates (mass 2.261947e-01) at step 15901
 - a total of 20 particle templates (mass 4.523893e+00) inserted so far.
   16000       20      8309.7438              0            224 
WARNING: Particle insertion: Inserting no particle - check particle insertion settings (../fix_insert.cpp:703)
INFO: Particle insertion ins: inserted 1 particle templates (mass 2.261947e-01) at step 16101
 - a total of 21 particle templates (mass 4.750088e+00) inserted so far.
WARNING: Particle insertion: Inserting no particle - check particle insertion settings (../fix_insert.cpp:703)
INFO: Particle insertion ins: inserted 1 particle templates (mass 2.261947e-01) at step 16301
 - a total of 22 particle templates (mass 4.976283e+00) inserted so far.
WARNING: Particle insertion: Inserting no particle - check particle insertion settings (../fix_insert.cpp:703)
WARNING: Particle insertion: Inserting no particle - check particle insertion settings (../fix_insert.cpp:703)
WARNING: Particle insertion: Inserting no particle - check particle insertion settings (../fix_insert.cpp:703)
WARNING: Particle insertion: Inserting no particle - check particle insertion settings (../fix_insert.cpp:703)
WARNING: Particle insertion: Inserting no particle - check particle insertion settings (../fix_insert.cpp:703)
WARNING: Particle insertion: Inserting no particle - check particle insertion settings (../fix_insert.cpp:703)
   17000       22       8722.818      3.4504734            224 
WARNING: Particle insertion: Inserting no particle - check particle insertion settings (../fix_insert.cpp:703)
WARNING: Particle insertion: Inserting no particle - check particle insertion settings (../fix_insert.cpp:703)
WARNING: Particle insertion: Inserting no particle - check particle insertion settings (../fix_insert.cpp:703)
WARNING: Particle insertion: Inserting no particle - check particle insertion settings (../fix_insert.cpp:703)
WARNING: Particle insertion: Inserting no particle - check particle insertion settings (../fix_insert.cpp:703)
WARNING: Particle insertion: Inserting no particle - check particle insertion settings (../fix_insert.cpp:703)
WARNING: Particle insertion: Inserting no particle - check particle insertion settings (../fix_insert.cpp:703)
INFO: Particle insertion ins: inserted 1 particle templates (mass 2.261947e-01) at step 17701
 - a total of 23 particle templates (mass 5.202477e+00) inserted so far.
WARNING: Particle insertion: Inserting no particle - check particle insertion settings (../fix_insert.cpp:703)
WARNING: Particle insertion: Inserting no particle - check particle insertion settings (../fix_insert.cpp:703)
   18000       23      9158.4311      3.4495245            224 
WARNING: Particle insertion: Inserting no particle - check particle insertion settings (../fix_insert.cpp:703)
WARNING: Particle insertion: Inserting no particle - check particle insertion settings (../fix_insert.cpp:703)
WARNING: Particle insertion: Inserting no particle - check particle insertion settings (../fix_insert.cpp:703)
WARNING: Particle insertion: Inserting no particle - check particle insertion settings (../fix_insert.cpp:703)
INFO: Particle insertion ins: inserted 1 particle templates (mass 2.261947e-01) at step 18401
 - a total of 24 particle templates (mass 5.428672e+00) inserted so far.
WARNING: Particle insertion: Inserting no particle - check particle insertion settings (../fix_insert.cpp:703)
WARNING: Particle insertion: Inserting no particle - check particle insertion settings (../fix_insert.cpp:703)
INFO: Particle insertion ins: inserted 1 particle templates (mass 2.261947e-01) at step 18701
 - a total of 25 particle templates (mass 5.654867e+00) inserted so far.
WARNING: Particle insertion: Inserting no particle - check particle insertion settings (../fix_insert.cpp:703)
WARNING: Particle insertion: Inserting no particle - check particle insertion settings (../fix_insert.cpp:703)
   19000       25      10003.251      3.4495245            224 
WARNING: Particle insertion: Inserting no particle - check particle insertion settings (../fix_insert.cpp:703)
WARNING: Particle insertion: Inserting no particle - check particle insertion settings (../fix_insert.cpp:703)
WARNING: Particle insertion: Inserting no particle - check particle insertion settings (../fix_insert.cpp:703)
WARNING: Particle insertion: Inserting no particle - check particle insertion settings (../fix_insert.cpp:703)
WARNING: Particle insertion: Inserting no particle - check particle insertion settings (../fix_insert.cpp:703)
WARNING: Particle insertion: Inserting no particle - check particle insertion settings (../fix_insert.cpp:703)
WARNING: Particle insertion: Inserting no particle - check particle insertion settings (../fix_insert.cpp:703)
WARNING: Particle insertion: Inserting no particle - check particle insertion settings (../fix_insert.cpp:703)
WARNING: Particle insertion: Inserting no particle - check particle insertion settings (../fix_insert.cpp:703)
WARNING: Particle insertion: Inserting no particle - check particle insertion settings (../fix_insert.cpp:703)
   20000       25      9605.7527     0.14360818            224 
WARNING: Particle insertion: Inserting no particle - check particle insertion settings (../fix_insert.cpp:703)
WARNING: Particle insertion: Inserting no particle - check particle insertion settings (../fix_insert.cpp:703)
INFO: Particle insertion ins: inserted 1 particle templates (mass 2.261947e-01) at step 20201
 - a total of 26 particle templates (mass 5.881061e+00) inserted so far.
WARNING: Particle insertion: Inserting no particle - check particle insertion settings (../fix_insert.cpp:703)
INFO: Particle insertion ins: inserted 1 particle templates (mass 2.261947e-01) at step 20401
 - a total of 27 particle templates (mass 6.107256e+00) inserted so far.
WARNING: Particle insertion: Inserting no particle - check particle insertion settings (../fix_insert.cpp:703)
WARNING: Particle insertion: Inserting no particle - check particle insertion settings (../fix_insert.cpp:703)
WARNING: Particle insertion: Inserting no particle - check particle insertion settings (../fix_insert.cpp:703)
WARNING: Particle insertion: Inserting no particle - check particle insertion settings (../fix_insert.cpp:703)
WARNING: Particle insertion: Inserting no particle - check particle insertion settings (../fix_insert.cpp:703)
   21000       27      9213.4887      6.9079504            224 
INFO: Particle insertion ins: inserted 1 particle templates (mass 2.261947e-01) at step 21001
 - a total of 28 particle templates (mass 6.333451e+00) inserted so far.
WARNING: Particle insertion: Inserting no particle - check particle insertion settings (../fix_insert.cpp:703)
WARNING: Particle insertion: Inserting no particle - check particle insertion settings (../fix_insert.cpp:703)
WARNING: Particle insertion: Inserting no particle - check particle insertion settings (../fix_insert.cpp:703)
INFO: Particle insertion ins: inserted 1 particle templates (mass 2.261947e-01) at step 21401
 - a total of 29 particle templates (mass 6.559645e+00) inserted so far.
WARNING: Particle insertion: Inserting no particle - check particle insertion settings (../fix_insert.cpp:703)
WARNING: Particle insertion: Inserting no particle - check particle insertion settings (../fix_insert.cpp:703)
WARNING: Particle insertion: Inserting no particle - check particle insertion settings (../fix_insert.cpp:703)
WARNING: Particle insertion: Inserting no particle - check particle insertion settings (../fix_insert.cpp:703)
WARNING: Particle insertion: Inserting no particle - check particle insertion settings (../fix_insert.cpp:703)
   22000       29      10034.268        2.94643            224 
INFO: Particle insertion ins: inserted 1 particle templates (mass 2.261947e-01) at step 22001
 - a total of 30 particle templates (mass 6.785840e+00) inserted so far.
WARNING: Particle insertion: Inserting no particle - check particle insertion settings (../fix_insert.cpp:703)
INFO: Particle insertion ins: inserted 1 particle templates (mass 2.261947e-01) at step 22201
 - a total of 31 particle templates (mass 7.012035e+00) inserted so far.
WARNING: Particle insertion: Inserting no particle - check particle insertion settings (../fix_insert.cpp:703)
WARNING: Particle insertion: Inserting no particle - check particle insertion settings (../fix_insert.cpp:703)
INFO: Particle insertion ins: inserted 1 particle templates (mass 2.261947e-01) at step 22501
 - a total of 32 particle templates (mass 7.238229e+00) inserted so far.
WARNING: Particle insertion: Inserting no particle - check particle insertion settings (../fix_insert.cpp:703)
WARNING: Particle insertion: Inserting no particle - check particle insertion settings (../fix_insert.cpp:703)
WARNING: Particle insertion: Inserting no particle - check particle insertion settings (../fix_insert.cpp:703)
INFO: Particle insertion ins: inserted 1 particle templates (mass 2.261947e-01) at step 22901
 - a total of 33 particle templates (mass 7.464424e+00) inserted so far.
   23000       33      10977.354      22.236475            224 
WARNING: Particle insertion: Inserting no particle - check particle insertion settings (../fix_insert.cpp:703)
WARNING: Particle insertion: Inserting no particle - check particle insertion settings (../fix_insert.cpp:703)
WARNING: Particle insertion: Inserting no particle - check particle insertion settings (../fix_insert.cpp:703)
WARNING: Particle insertion: Inserting no particle - check particle insertion settings (../fix_insert.cpp:703)
WARNING: Particle insertion: Inserting no particle - check particle insertion settings (../fix_insert.cpp:703)
WARNING: Particle insertion: Inserting no particle - check particle insertion settings (../fix_insert.cpp:703)
WARNING: Particle insertion: Inserting no particle - check particle insertion settings (../fix_insert.cpp:703)
INFO: Particle insertion ins: inserted 1 particle templates (mass 2.261947e-01) at step 23701
 - a total of 34 particle templates (mass 7.690619e+00) inserted so far.
WARNING: Particle insertion: Inserting no particle - check particle insertion settings (../fix_insert.cpp:703)
WARNING: Particle insertion: Inserting no particle - check particle insertion settings (../fix_insert.cpp:703)
   24000       34      10476.475      13.587332            224 
WARNING: Particle insertion: Inserting no particle - check particle insertion settings (../fix_insert.cpp:703)
WARNING: Particle insertion: Inserting no particle - check particle insertion settings (../fix_insert.cpp:703)
WARNING: Particle insertion: Inserting no particle - check particle insertion settings (../fix_insert.cpp:703)
WARNING: Particle insertion: Inserting no particle - check particle insertion settings (../fix_insert.cpp:703)
WARNING: Particle insertion: Inserting no particle - check particle insertion settings (../fix_insert.cpp:703)
WARNING: Particle insertion: Inserting no particle - check particle insertion settings (../fix_insert.cpp:703)
WARNING: Particle insertion: Inserting no particle - check particle insertion settings (../fix_insert.cpp:703)
WARNING: Particle insertion: Inserting no particle - check particle insertion settings (../fix_insert.cpp:703)
WARNING: Particle insertion: Inserting no particle - check particle insertion settings (../fix_insert.cpp:703)
INFO: Particle insertion ins: inserted 1 particle templates (mass 2.261947e-01) at step 24901
 - a total of 35 particle templates (mass 7.916813e+00) inserted so far.
   25000       35      10911.544      12.801962            224 
WARNING: Particle insertion: Inserting no particle - check particle insertion settings (../fix_insert.cpp:703)
WARNING: Particle insertion: Inserting no particle - check particle insertion settings (../fix_insert.cpp:703)
WARNING: Particle insertion: Inserting no particle - check particle insertion settings (../fix_insert.cpp:703)
WARNING: Particle insertion: Inserting no particle - check particle insertion settings (../fix_insert.cpp:703)
WARNING: Particle insertion: Inserting no particle - check particle insertion settings (../fix_insert.cpp:703)
WARNING: Particle insertion: Inserting no particle - check particle insertion settings (../fix_insert.cpp:703)
WARNING: Particle insertion: Inserting no particle - check particle insertion settings (../fix_insert.cpp:703)
WARNING: Particle insertion: Inserting no particle - check particle insertion settings (../fix_insert.cpp:703)
WARNING: Particle insertion: Inserting no particle - check particle insertion settings (../fix_insert.cpp:703)
WARNING: Particle insertion: Inserting no particle - check particle insertion settings (../fix_insert.cpp:703)
   26000       35      10519.233      16.156052            224 
WARNING: Particle insertion: Inserting no particle - check particle insertion settings (../fix_insert.cpp:703)
WARNING: Particle insertion: Inserting no particle - check particle insertion settings (../fix_insert.cpp:703)
WARNING: Particle insertion: Inserting no particle - check particle insertion settings (../fix_insert.cpp:703)
WARNING: Particle insertion: Inserting no particle - check particle insertion settings (../fix_insert.cpp:703)
WARNING: Particle insertion: Inserting no particle - check particle insertion settings (../fix_insert.cpp:703)
WARNING: Particle insertion: Inserting no particle - check particle insertion settings (../fix_insert.cpp:703)
WARNING: Particle insertion: Inserting no particle - check particle insertion settings (../fix_insert.cpp:703)
WARNING: Particle insertion: Inserting no particle - check particle insertion settings (../fix_insert.cpp:703)
WARNING: Particle insertion: Inserting no particle - check particle insertion settings (../fix_insert.cpp:703)
WARNING: Particle insertion: Inserting no particle - check particle insertion settings (../fix_insert.cpp:703)
   27000       35      10550.333      12.785112            224 
WARNING: Particle insertion: Inserting no particle - check particle insertion settings (../fix_insert.cpp:703)
WARNING: Particle insertion: Inserting no particle - check particle insertion settings (../fix_insert.cpp:703)
WARNING: Particle insertion: Inserting no particle - check particle insertion settings (../fix_insert.cpp:703)
WARNING: Particle insertion: Inserting no particle - check particle insertion settings (../fix_insert.cpp:703)
WARNING: Particle insertion: Inserting no particle - check particle insertion settings (../fix_insert.cpp:703)
WARNING: Particle insertion: Inserting no particle - check particle insertion settings (../fix_insert.cpp:703)
WARNING: Particle insertion: Inserting no particle - check particle insertion settings (../fix_insert.cpp:703)
WARNING: Particle insertion: Inserting no particle - check particle insertion settings (../fix_insert.cpp:703)
WARNING: Particle insertion: Inserting no particle - check particle insertion settings (../fix_insert.cpp:703)
WARNING: Particle insertion: Inserting no particle - check particle insertion settings (../fix_insert.cpp:703)
   28000       35      10176.767      27.362742            224 
WARNING: Particle insertion: Inserting no particle - check particle insertion settings (../fix_insert.cpp:703)
WARNING: Particle insertion: Inserting no particle - check particle insertion settings (../fix_insert.cpp:703)
WARNING: Particle insertion: Inserting no particle - check particle insertion settings (../fix_insert.cpp:703)
WARNING: Particle insertion: Inserting no particle - check particle insertion settings (../fix_insert.cpp:703)
WARNING: Particle insertion: Inserting no particle - check particle insertion settings (../fix_insert.cpp:703)
WARNING: Particle insertion: Inserting no particle - check particle insertion settings (../fix_insert.cpp:703)
INFO: Particle insertion ins: inserted 1 particle templates (mass 2.261947e-01) at step 28601
 - a total of 36 particle templates (mass 8.143008e+00) inserted so far.
WARNING: Particle insertion: Inserting no particle - check particle insertion settings (../fix_insert.cpp:703)
WARNING: Particle insertion: Inserting no particle - check particle insertion settings (../fix_insert.cpp:703)
WARNING: Particle insertion: Inserting no particle - check particle insertion settings (../fix_insert.cpp:703)
   29000       36      10224.888       32.58595            224 
WARNING: Particle insertion: Inserting no particle - check particle insertion settings (../fix_insert.cpp:703)
WARNING: Particle insertion: Inserting no particle - check particle insertion settings (../fix_insert.cpp:703)
WARNING: Particle insertion: Inserting no particle - check particle insertion settings (../fix_insert.cpp:703)
WARNING: Particle insertion: Inserting no particle - check particle insertion settings (../fix_insert.cpp:703)
WARNING: Particle insertion: Inserting no particle - check particle insertion settings (../fix_insert.cpp:703)
WARNING: Particle insertion: Inserting no particle - check particle insertion settings (../fix_insert.cpp:703)
WARNING: Particle insertion: Inserting no particle - check particle insertion settings (../fix_insert.cpp:703)
WARNING: Particle insertion: Inserting no particle - check particle insertion settings (../fix_insert.cpp:703)
WARNING: Particle insertion: Inserting no particle - check particle insertion settings (../fix_insert.cpp:703)
INFO: Particle insertion ins: inserted 1 particle templates (mass 2.261947e-01) at step 29901
 - a total of 37 particle templates (mass 8.369203e+00) inserted so far.
   30000       37      9806.4077      32.599968            224 
WARNING: Particle insertion: Inserting no particle - check particle insertion settings (../fix_insert.cpp:703)
WARNING: Particle insertion: Inserting no particle - check particle insertion settings (../fix_insert.cpp:703)
WARNING: Particle insertion: Inserting no particle - check particle insertion settings (../fix_insert.cpp:703)
WARNING: Particle insertion: Inserting no particle - check particle insertion settings (../fix_insert.cpp:703)
WARNING: Particle insertion: Inserting no particle - check particle insertion settings (../fix_insert.cpp:703)
WARNING: Particle insertion: Inserting no particle - check particle insertion settings (../fix_insert.cpp:703)
WARNING: Particle insertion: Inserting no particle - check particle insertion settings (../fix_insert.cpp:703)
INFO: Particle insertion ins: inserted 1 particle templates (mass 2.261947e-01) at step 30701
 - a total of 38 particle templates (mass 8.595398e+00) inserted so far.
WARNING: Particle insertion: Inserting no particle - check particle insertion settings (../fix_insert.cpp:703)
WARNING: Particle insertion: Inserting no particle - check particle insertion settings (../fix_insert.cpp:703)
   31000       38      9006.4894      43.242725            224 
WARNING: Particle insertion: Inserting no particle - check particle insertion settings (../fix_insert.cpp:703)
WARNING: Particle insertion: Inserting no particle - check particle insertion settings (../fix_insert.cpp:703)
WARNING: Particle insertion: Inserting no particle - check particle insertion settings (../fix_insert.cpp:703)
WARNING: Particle insertion: Inserting no particle - check particle insertion settings (../fix_insert.cpp:703)
WARNING: Particle insertion: Inserting no particle - check particle insertion settings (../fix_insert.cpp:703)
WARNING: Particle insertion: Inserting no particle - check particle insertion settings (../fix_insert.cpp:703)
WARNING: Particle insertion: Inserting no particle - check particle insertion settings (../fix_insert.cpp:703)
WARNING: Particle insertion: Inserting no particle - check particle insertion settings (../fix_insert.cpp:703)
WARNING: Particle insertion: Inserting no particle - check particle insertion settings (../fix_insert.cpp:703)
WARNING: Particle insertion: Inserting no particle - check particle insertion settings (../fix_insert.cpp:703)
   32000       38      8136.1663      45.993783            224 
INFO: Particle insertion ins: inserted 1 particle templates (mass 2.261947e-01) at step 32001
 - a total of 39 particle templates (mass 8.821592e+00) inserted so far.
WARNING: Particle insertion: Inserting no particle - check particle insertion settings (../fix_insert.cpp:703)
WARNING: Particle insertion: Inserting no particle - check particle insertion settings (../fix_insert.cpp:703)
WARNING: Particle insertion: Inserting no particle - check particle insertion settings (../fix_insert.cpp:703)
WARNING: Particle insertion: Inserting no particle - check particle insertion settings (../fix_insert.cpp:703)
WARNING: Particle insertion: Inserting no particle - check particle insertion settings (../fix_insert.cpp:703)
WARNING: Particle insertion: Inserting no particle - check particle insertion settings (../fix_insert.cpp:703)
INFO: Particle insertion ins: inserted 1 particle templates (mass 2.261947e-01) at step 32701
 - a total of 40 particle templates (mass 9.047787e+00) inserted so far.
WARNING: Particle insertion: Inserting no particle - check particle insertion settings (../fix_insert.cpp:703)
WARNING: Particle insertion: Inserting no particle - check particle insertion settings (../fix_insert.cpp:703)
   33000       40      7775.5759      60.721575            224 
WARNING: Particle insertion: Inserting no particle - check particle insertion settings (../fix_insert.cpp:703)
WARNING: Particle insertion: Inserting no particle - check particle insertion settings (../fix_insert.cpp:703)
WARNING: Particle insertion: Inserting no particle - check particle insertion settings (../fix_insert.cpp:703)
WARNING: Particle insertion: Inserting no particle - check particle insertion settings (../fix_insert.cpp:703)
WARNING: Particle insertion: Inserting no particle - check particle insertion settings (../fix_insert.cpp:703)
WARNING: Particle insertion: Inserting no particle - check particle insertion settings (../fix_insert.cpp:703)
WARNING: Particle insertion: Inserting no particle - check particle insertion settings (../fix_insert.cpp:703)
WARNING: Particle insertion: Inserting no particle - check particle insertion settings (../fix_insert.cpp:703)
WARNING: Particle insertion: Inserting no particle - check particle insertion settings (../fix_insert.cpp:703)
WARNING: Particle insertion: Inserting no particle - check particle insertion settings (../fix_insert.cpp:703)
   34000       40      7393.1078       76.93415            224 
WARNING: Particle insertion: Inserting no particle - check particle insertion settings (../fix_insert.cpp:703)
INFO: Particle insertion ins: inserted 1 particle templates (mass 2.261947e-01) at step 34101
 - a total of 41 particle templates (mass 9.273982e+00) inserted so far.
WARNING: Particle insertion: Inserting no particle - check particle insertion settings (../fix_insert.cpp:703)
WARNING: Particle insertion: Inserting no particle - check particle insertion settings (../fix_insert.cpp:703)
WARNING: Particle insertion: Inserting no particle - check particle insertion settings (../fix_insert.cpp:703)
WARNING: Particle insertion: Inserting no particle - check particle insertion settings (../fix_insert.cpp:703)
WARNING: Particle insertion: Inserting no particle - check particle insertion settings (../fix_insert.cpp:703)
WARNING: Particle insertion: Inserting no particle - check particle insertion settings (../fix_insert.cpp:703)
WARNING: Particle insertion: Inserting no particle - check particle insertion settings (../fix_insert.cpp:703)
WARNING: Particle insertion: Inserting no particle - check particle insertion settings (../fix_insert.cpp:703)
   35000       41      6982.3348      78.044093            224 
WARNING: Particle insertion: Inserting no particle - check particle insertion settings (../fix_insert.cpp:703)
WARNING: Particle insertion: Inserting no particle - check particle insertion settings (../fix_insert.cpp:703)
WARNING: Particle insertion: Inserting no particle - check particle insertion settings (../fix_insert.cpp:703)
WARNING: Particle insertion: Inserting no particle - check particle insertion settings (../fix_insert.cpp:703)
WARNING: Particle insertion: Inserting no particle - check particle insertion settings (../fix_insert.cpp:703)
WARNING: Particle insertion: Inserting no particle - check particle insertion settings (../fix_insert.cpp:703)
WARNING: Particle insertion: Inserting no particle - check particle insertion settings (../fix_insert.cpp:703)
WARNING: Particle insertion: Inserting no particle - check particle insertion settings (../fix_insert.cpp:703)
WARNING: Particle insertion: Inserting no particle - check particle insertion settings (../fix_insert.cpp:703)
WARNING: Particle insertion: Inserting no particle - check particle insertion settings (../fix_insert.cpp:703)
   36000       41        6992.84        72.1159            224 
WARNING: Particle insertion: Inserting no particle - check particle insertion settings (../fix_insert.cpp:703)
WARNING: Particle insertion: Inserting no particle - check particle insertion settings (../fix_insert.cpp:703)
WARNING: Particle insertion: Inserting no particle - check particle insertion settings (../fix_insert.cpp:703)
WARNING: Particle insertion: Inserting no particle - check particle insertion settings (../fix_insert.cpp:703)
WARNING: Particle insertion: Inserting no particle - check particle insertion settings (../fix_insert.cpp:703)
WARNING: Particle insertion: Inserting no particle - check particle insertion settings (../fix_insert.cpp:703)
WARNING: Particle insertion: Inserting no particle - check particle insertion settings (../fix_insert.cpp:703)
WARNING: Particle insertion: Inserting no particle - check particle insertion settings (../fix_insert.cpp:703)
WARNING: Particle insertion: Inserting no particle - check particle insertion settings (../fix_insert.cpp:703)
WARNING: Particle insertion: Inserting no particle - check particle insertion settings (../fix_insert.cpp:703)
   37000       41      6190.3236      82.774383            224 
WARNING: Particle insertion: Inserting no particle - check particle insertion settings (../fix_insert.cpp:703)
WARNING: Particle insertion: Inserting no particle - check particle insertion settings (../fix_insert.cpp:703)
WARNING: Particle insertion: Inserting no particle - check particle insertion settings (../fix_insert.cpp:703)
WARNING: Particle insertion: Inserting no particle - check particle insertion settings (../fix_insert.cpp:703)
WARNING: Particle insertion: Inserting no particle - check particle insertion settings (../fix_insert.cpp:703)
WARNING: Particle insertion: Inserting no particle - check particle insertion settings (../fix_insert.cpp:703)
WARNING: Particle insertion: Inserting no particle - check particle insertion settings (../fix_insert.cpp:703)
INFO: Particle insertion ins: inserted 1 particle templates (mass 2.261947e-01) at step 37701
 - a total of 42 particle templates (mass 9.500176e+00) inserted so far.
WARNING: Particle insertion: Inserting no particle - check particle insertion settings (../fix_insert.cpp:703)
WARNING: Particle insertion: Inserting no particle - check particle insertion settings (../fix_insert.cpp:703)
   38000       42      5600.5471      92.099412            224 
WARNING: Particle insertion: Inserting no particle - check particle insertion settings (../fix_insert.cpp:703)
WARNING: Particle insertion: Inserting no particle - check particle insertion settings (../fix_insert.cpp:703)
WARNING: Particle insertion: Inserting no particle - check particle insertion settings (../fix_insert.cpp:703)
WARNING: Particle insertion: Inserting no particle - check particle insertion settings (../fix_insert.cpp:703)
WARNING: Particle insertion: Inserting no particle - check particle insertion settings (../fix_insert.cpp:703)
WARNING: Particle insertion: Inserting no particle - check particle insertion settings (../fix_insert.cpp:703)
WARNING: Particle insertion: Inserting no particle - check particle insertion settings (../fix_insert.cpp:703)
WARNING: Particle insertion: Inserting no particle - check particle insertion settings (../fix_insert.cpp:703)
WARNING: Particle insertion: Inserting no particle - check particle insertion settings (../fix_insert.cpp:703)
WARNING: Particle insertion: Inserting no particle - check particle insertion settings (../fix_insert.cpp:703)
   39000       42      4350.6276      88.236038            224 
WARNING: Particle insertion: Inserting no particle - check particle insertion settings (../fix_insert.cpp:703)
WARNING: Particle insertion: Inserting no particle - check particle insertion settings (../fix_insert.cpp:703)
WARNING: Particle insertion: Inserting no particle - check particle insertion settings (../fix_insert.cpp:703)
WARNING: Particle insertion: Inserting no particle - check particle insertion settings (../fix_insert.cpp:703)
WARNING: Particle insertion: Inserting no particle - check particle insertion settings (../fix_insert.cpp:703)
WARNING: Particle insertion: Inserting no particle - check particle insertion settings (../fix_insert.cpp:703)
WARNING: Particle insertion: Inserting no particle - check particle insertion settings (../fix_insert.cpp:703)
WARNING: Particle insertion: Inserting no particle - check particle insertion settings (../fix_insert.cpp:703)
WARNING: Particle insertion: Inserting no particle - check particle insertion settings (../fix_insert.cpp:703)
WARNING: Particle insertion: Inserting no particle - check particle insertion settings (../fix_insert.cpp:703)
   40000       42      3683.0321      89.945385            224 
WARNING: Particle insertion: Inserting no particle - check particle insertion settings (../fix_insert.cpp:703)
WARNING: Particle insertion: Inserting no particle - check particle insertion settings (../fix_insert.cpp:703)
WARNING: Particle insertion: Inserting no particle - check particle insertion settings (../fix_insert.cpp:703)
WARNING: Particle insertion: Inserting no particle - check particle insertion settings (../fix_insert.cpp:703)
WARNING: Particle insertion: Inserting no particle - check particle insertion settings (../fix_insert.cpp:703)
INFO: Particle insertion ins: inserted 1 particle templates (mass 2.261947e-01) at step 40501
 - a total of 43 particle templates (mass 9.726371e+00) inserted so far.
WARNING: Particle insertion: Inserting no particle - check particle insertion settings (../fix_insert.cpp:703)
WARNING: Particle insertion: Inserting no particle - check particle insertion settings (../fix_insert.cpp:703)
WARNING: Particle insertion: Inserting no particle - check particle insertion settings (../fix_insert.cpp:703)
WARNING: Particle insertion: Inserting no particle - check particle insertion settings (../fix_insert.cpp:703)
   41000       43      4087.2021      83.119641            224 
WARNING: Particle insertion: Inserting no particle - check particle insertion settings (../fix_insert.cpp:703)
INFO: Particle insertion ins: inserted 1 particle templates (mass 2.261947e-01) at step 41101
 - a total of 44 particle templates (mass 9.952566e+00) inserted so far.
INFO: Particle insertion ins: inserted 1 particle templates (mass 2.261947e-01) at step 41201
 - a total of 45 particle templates (mass 1.017876e+01) inserted so far.
WARNING: Particle insertion: Inserting no particle - check particle insertion settings (../fix_insert.cpp:703)
WARNING: Particle insertion: Inserting no particle - check particle insertion settings (../fix_insert.cpp:703)
WARNING: Particle insertion: Inserting no particle - check particle insertion settings (../fix_insert.cpp:703)
WARNING: Particle insertion: Inserting no particle - check particle insertion settings (../fix_insert.cpp:703)
WARNING: Particle insertion: Inserting no particle - check particle insertion settings (../fix_insert.cpp:703)
WARNING: Particle insertion: Inserting no particle - check particle insertion settings (../fix_insert.cpp:703)
WARNING: Particle insertion: Inserting no particle - check particle insertion settings (../fix_insert.cpp:703)
   42000       45       4498.338      89.698089            224 
WARNING: Particle insertion: Inserting no particle - check particle insertion settings (../fix_insert.cpp:703)
WARNING: Particle insertion: Inserting no particle - check particle insertion settings (../fix_insert.cpp:703)
WARNING: Particle insertion: Inserting no particle - check particle insertion settings (../fix_insert.cpp:703)
WARNING: Particle insertion: Inserting no particle - check particle insertion settings (../fix_insert.cpp:703)
INFO: Particle insertion ins: inserted 1 particle templates (mass 2.261947e-01) at step 42401
 - a total of 46 particle templates (mass 1.040495e+01) inserted so far.
WARNING: Particle insertion: Inserting no particle - check particle insertion settings (../fix_insert.cpp:703)
WARNING: Particle insertion: Inserting no particle - check particle insertion settings (../fix_insert.cpp:703)
WARNING: Particle insertion: Inserting no particle - check particle insertion settings (../fix_insert.cpp:703)
WARNING: Particle insertion: Inserting no particle - check particle insertion settings (../fix_insert.cpp:703)
WARNING: Particle insertion: Inserting no particle - check particle insertion settings (../fix_insert.cpp:703)
   43000       46      4917.4957      89.573355            224 
WARNING: Particle insertion: Inserting no particle - check particle insertion settings (../fix_insert.cpp:703)
WARNING: Particle insertion: Inserting no particle - check particle insertion settings (../fix_insert.cpp:703)
WARNING: Particle insertion: Inserting no particle - check particle insertion settings (../fix_insert.cpp:703)
WARNING: Particle insertion: Inserting no particle - check particle insertion settings (../fix_insert.cpp:703)
WARNING: Particle insertion: Inserting no particle - check particle insertion settings (../fix_insert.cpp:703)
WARNING: Particle insertion: Inserting no particle - check particle insertion settings (../fix_insert.cpp:703)
WARNING: Particle insertion: Inserting no particle - check particle insertion settings (../fix_insert.cpp:703)
WARNING: Particle insertion: Inserting no particle - check particle insertion settings (../fix_insert.cpp:703)
WARNING: Particle insertion: Inserting no particle - check particle insertion settings (../fix_insert.cpp:703)
WARNING: Particle insertion: Inserting no particle - check particle insertion settings (../fix_insert.cpp:703)
   44000       46      4916.9373      89.149586            224 
WARNING: Particle insertion: Inserting no particle - check particle insertion settings (../fix_insert.cpp:703)
WARNING: Particle insertion: Inserting no particle - check particle insertion settings (../fix_insert.cpp:703)
WARNING: Particle insertion: Inserting no particle - check particle insertion settings (../fix_insert.cpp:703)
WARNING: Particle insertion: Inserting no particle - check particle insertion settings (../fix_insert.cpp:703)
WARNING: Particle insertion: Inserting no particle - check particle insertion settings (../fix_insert.cpp:703)
WARNING: Particle insertion: Inserting no particle - check particle insertion settings (../fix_insert.cpp:703)
WARNING: Particle insertion: Inserting no particle - check particle insertion settings (../fix_insert.cpp:703)
WARNING: Particle insertion: Inserting no particle - check particle insertion settings (../fix_insert.cpp:703)
WARNING: Particle insertion: Inserting no particle - check particle insertion settings (../fix_insert.cpp:703)
WARNING: Particle insertion: Inserting no particle - check particle insertion settings (../fix_insert.cpp:703)
   45000       46      4514.2987      92.963553            224 
WARNING: Particle insertion: Inserting no particle - check particle insertion settings (../fix_insert.cpp:703)
WARNING: Particle insertion: Inserting no particle - check particle insertion settings (../fix_insert.cpp:703)
WARNING: Particle insertion: Inserting no particle - check particle insertion settings (../fix_insert.cpp:703)
WARNING: Particle insertion: Inserting no particle - check particle insertion settings (../fix_insert.cpp:703)
WARNING: Particle insertion: Inserting no particle - check particle insertion settings (../fix_insert.cpp:703)
WARNING: Particle insertion: Inserting no particle - check particle insertion settings (../fix_insert.cpp:703)
WARNING: Particle insertion: Inserting no particle - check particle insertion settings (../fix_insert.cpp:703)
WARNING: Particle insertion: Inserting no particle - check particle insertion settings (../fix_insert.cpp:703)
WARNING: Particle insertion: Inserting no particle - check particle insertion settings (../fix_insert.cpp:703)
WARNING: Particle insertion: Inserting no particle - check particle insertion settings (../fix_insert.cpp:703)
   46000       46      4167.4039      104.14373            224 
WARNING: Particle insertion: Inserting no particle - check particle insertion settings (../fix_insert.cpp:703)
WARNING: Particle insertion: Inserting no particle - check particle insertion settings (../fix_insert.cpp:703)
WARNING: Particle insertion: Inserting no particle - check particle insertion settings (../fix_insert.cpp:703)
WARNING: Particle insertion: Inserting no particle - check particle insertion settings (../fix_insert.cpp:703)
WARNING: Particle insertion: Inserting no particle - check particle insertion settings (../fix_insert.cpp:703)
WARNING: Particle insertion: Inserting no particle - check particle insertion settings (../fix_insert.cpp:703)
WARNING: Particle insertion: Inserting no particle - check particle insertion settings (../fix_insert.cpp:703)
WARNING: Particle insertion: Inserting no particle - check particle insertion settings (../fix_insert.cpp:703)
WARNING: Particle insertion: Inserting no particle - check particle insertion settings (../fix_insert.cpp:703)
WARNING: Particle insertion: Inserting no particle - check particle insertion settings (../fix_insert.cpp:703)
   47000       46      3684.3879      106.16872            224 
WARNING: Particle insertion: Inserting no particle - check particle insertion settings (../fix_insert.cpp:703)
WARNING: Particle insertion: Inserting no particle - check particle insertion settings (../fix_insert.cpp:703)
WARNING: Particle insertion: Inserting no particle - check particle insertion settings (../fix_insert.cpp:703)
WARNING: Particle insertion: Inserting no particle - check particle insertion settings (../fix_insert.cpp:703)
WARNING: Particle insertion: Inserting no particle - check particle insertion settings (../fix_insert.cpp:703)
WARNING: Particle insertion: Inserting no particle - check particle insertion settings (../fix_insert.cpp:703)
WARNING: Particle insertion: Inserting no particle - check particle insertion settings (../fix_insert.cpp:703)
WARNING: Particle insertion: Inserting no particle - check particle insertion settings (../fix_insert.cpp:703)
WARNING: Particle insertion: Inserting no particle - check particle insertion settings (../fix_insert.cpp:703)
WARNING: Particle insertion: Inserting no particle - check particle insertion settings (../fix_insert.cpp:703)
   48000       46       3666.444       93.18875            224 
WARNING: Particle insertion: Inserting no particle - check particle insertion settings (../fix_insert.cpp:703)
WARNING: Particle insertion: Inserting no particle - check particle insertion settings (../fix_insert.cpp:703)
WARNING: Particle insertion: Inserting no particle - check particle insertion settings (../fix_insert.cpp:703)
WARNING: Particle insertion: Inserting no particle - check particle insertion settings (../fix_insert.cpp:703)
WARNING: Particle insertion: Inserting no particle - check particle insertion settings (../fix_insert.cpp:703)
WARNING: Particle insertion: Inserting no particle - check particle insertion settings (../fix_insert.cpp:703)
WARNING: Particle insertion: Inserting no particle - check particle insertion settings (../fix_insert.cpp:703)
WARNING: Particle insertion: Inserting no particle - check particle insertion settings (../fix_insert.cpp:703)
WARNING: Particle insertion: Inserting no particle - check particle insertion settings (../fix_insert.cpp:703)
WARNING: Particle insertion: Inserting no particle - check particle insertion settings (../fix_insert.cpp:703)
   49000       46      2869.6442      97.074794            224 
WARNING: Particle insertion: Inserting no particle - check particle insertion settings (../fix_insert.cpp:703)
WARNING: Particle insertion: Inserting no particle - check particle insertion settings (../fix_insert.cpp:703)
WARNING: Particle insertion: Inserting no particle - check particle insertion settings (../fix_insert.cpp:703)
WARNING: Particle insertion: Inserting no particle - check particle insertion settings (../fix_insert.cpp:703)
INFO: Particle insertion ins: inserted 1 particle templates (mass 2.261947e-01) at step 49401
 - a total of 47 particle templates (mass 1.063115e+01) inserted so far.
WARNING: Particle insertion: Inserting no particle - check particle insertion settings (../fix_insert.cpp:703)
WARNING: Particle insertion: Inserting no particle - check particle insertion settings (../fix_insert.cpp:703)
WARNING: Particle insertion: Inserting no particle - check particle insertion settings (../fix_insert.cpp:703)
WARNING: Particle insertion: Inserting no particle - check particle insertion settings (../fix_insert.cpp:703)
WARNING: Particle insertion: Inserting no particle - check particle insertion settings (../fix_insert.cpp:703)
   50000       47      3192.3857      94.973302            224 
WARNING: Particle insertion: Inserting no particle - check particle insertion settings (../fix_insert.cpp:703)
WARNING: Particle insertion: Inserting no particle - check particle insertion settings (../fix_insert.cpp:703)
WARNING: Particle insertion: Inserting no particle - check particle insertion settings (../fix_insert.cpp:703)
WARNING: Particle insertion: Inserting no particle - check particle insertion settings (../fix_insert.cpp:703)
WARNING: Particle insertion: Inserting no particle - check particle insertion settings (../fix_insert.cpp:703)
WARNING: Particle insertion: Inserting no particle - check particle insertion settings (../fix_insert.cpp:703)
WARNING: Particle insertion: Inserting no particle - check particle insertion settings (../fix_insert.cpp:703)
WARNING: Particle insertion: Inserting no particle - check particle insertion settings (../fix_insert.cpp:703)
WARNING: Particle insertion: Inserting no particle - check particle insertion settings (../fix_insert.cpp:703)
WARNING: Particle insertion: Inserting no particle - check particle insertion settings (../fix_insert.cpp:703)
   51000       47      2770.4087       96.90089            224 
WARNING: Particle insertion: Inserting no particle - check particle insertion settings (../fix_insert.cpp:703)
WARNING: Particle insertion: Inserting no particle - check particle insertion settings (../fix_insert.cpp:703)
WARNING: Particle insertion: Inserting no particle - check particle insertion settings (../fix_insert.cpp:703)
WARNING: Particle insertion: Inserting no particle - check particle insertion settings (../fix_insert.cpp:703)
INFO: Particle insertion ins: inserted 1 particle templates (mass 2.261947e-01) at step 51401
 - a total of 48 particle templates (mass 1.085734e+01) inserted so far.
WARNING: Particle insertion: Inserting no particle - check particle insertion settings (../fix_insert.cpp:703)
WARNING: Particle insertion: Inserting no particle - check particle insertion settings (../fix_insert.cpp:703)
WARNING: Particle insertion: Inserting no particle - check particle insertion settings (../fix_insert.cpp:703)
WARNING: Particle insertion: Inserting no particle - check particle insertion settings (../fix_insert.cpp:703)
WARNING: Particle insertion: Inserting no particle - check particle insertion settings (../fix_insert.cpp:703)
   52000       48      3183.6547      96.288964            224 
WARNING: Particle insertion: Inserting no particle - check particle insertion settings (../fix_insert.cpp:703)
WARNING: Particle insertion: Inserting no particle - check particle insertion settings (../fix_insert.cpp:703)
WARNING: Particle insertion: Inserting no particle - check particle insertion settings (../fix_insert.cpp:703)
WARNING: Particle insertion: Inserting no particle - check particle insertion settings (../fix_insert.cpp:703)
WARNING: Particle insertion: Inserting no particle - check particle insertion settings (../fix_insert.cpp:703)
WARNING: Particle insertion: Inserting no particle - check particle insertion settings (../fix_insert.cpp:703)
WARNING: Particle insertion: Inserting no particle - check particle insertion settings (../fix_insert.cpp:703)
WARNING: Particle insertion: Inserting no particle - check particle insertion settings (../fix_insert.cpp:703)
INFO: Particle insertion ins: inserted 1 particle templates (mass 2.261947e-01) at step 52801
 - a total of 49 particle templates (mass 1.108354e+01) inserted so far.
WARNING: Particle insertion: Inserting no particle - check particle insertion settings (../fix_insert.cpp:703)
   53000       49      3594.6929      92.979038            224 
WARNING: Particle insertion: Inserting no particle - check particle insertion settings (../fix_insert.cpp:703)
WARNING: Particle insertion: Inserting no particle - check particle insertion settings (../fix_insert.cpp:703)
INFO: Particle insertion ins: inserted 1 particle templates (mass 2.261947e-01) at step 53201
 - a total of 50 particle templates (mass 1.130973e+01) inserted so far.
WARNING: Particle insertion: Inserting no particle - check particle insertion settings (../fix_insert.cpp:703)
INFO: Particle insertion ins: inserted 1 particle templates (mass 2.261947e-01) at step 53401
 - a total of 51 particle templates (mass 1.153593e+01) inserted so far.
WARNING: Particle insertion: Inserting no particle - check particle insertion settings (../fix_insert.cpp:703)
INFO: Particle insertion ins: inserted 1 particle templates (mass 2.261947e-01) at step 53601
 - a total of 52 particle templates (mass 1.176212e+01) inserted so far.
WARNING: Particle insertion: Inserting no particle - check particle insertion settings (../fix_insert.cpp:703)
WARNING: Particle insertion: Inserting no particle - check particle insertion settings (../fix_insert.cpp:703)
WARNING: Particle insertion: Inserting no particle - check particle insertion settings (../fix_insert.cpp:703)
   54000       52      4428.8808      109.51678            224 
WARNING: Particle insertion: Inserting no particle - check particle insertion settings (../fix_insert.cpp:703)
INFO: Particle insertion ins: inserted 1 particle templates (mass 2.261947e-01) at step 54101
 - a total of 53 particle templates (mass 1.198832e+01) inserted so far.
WARNING: Particle insertion: Inserting no particle - check particle insertion settings (../fix_insert.cpp:703)
WARNING: Particle insertion: Inserting no particle - check particle insertion settings (../fix_insert.cpp:703)
WARNING: Particle insertion: Inserting no particle - check particle insertion settings (../fix_insert.cpp:703)
WARNING: Particle insertion: Inserting no particle - check particle insertion settings (../fix_insert.cpp:703)
WARNING: Particle insertion: Inserting no particle - check particle insertion settings (../fix_insert.cpp:703)
INFO: Particle insertion ins: inserted 1 particle templates (mass 2.261947e-01) at step 54701
 - a total of 54 particle templates (mass 1.221451e+01) inserted so far.
WARNING: Particle insertion: Inserting no particle - check particle insertion settings (../fix_insert.cpp:703)
WARNING: Particle insertion: Inserting no particle - check particle insertion settings (../fix_insert.cpp:703)
   55000       54      5226.9329       90.25454            224 
WARNING: Particle insertion: Inserting no particle - check particle insertion settings (../fix_insert.cpp:703)
WARNING: Particle insertion: Inserting no particle - check particle insertion settings (../fix_insert.cpp:703)
WARNING: Particle insertion: Inserting no particle - check particle insertion settings (../fix_insert.cpp:703)
INFO: Particle insertion ins: inserted 1 particle templates (mass 2.261947e-01) at step 55301
 - a total of 55 particle templates (mass 1.244071e+01) inserted so far.
WARNING: Particle insertion: Inserting no particle - check particle insertion settings (../fix_insert.cpp:703)
WARNING: Particle insertion: Inserting no particle - check particle insertion settings (../fix_insert.cpp:703)
WARNING: Particle insertion: Inserting no particle - check particle insertion settings (../fix_insert.cpp:703)
WARNING: Particle insertion: Inserting no particle - check particle insertion settings (../fix_insert.cpp:703)
WARNING: Particle insertion: Inserting no particle - check particle insertion settings (../fix_insert.cpp:703)
WARNING: Particle insertion: Inserting no particle - check particle insertion settings (../fix_insert.cpp:703)
   56000       55      5624.1719      78.777536            224 
WARNING: Particle insertion: Inserting no particle - check particle insertion settings (../fix_insert.cpp:703)
INFO: Particle insertion ins: inserted 1 particle templates (mass 2.261947e-01) at step 56101
 - a total of 56 particle templates (mass 1.266690e+01) inserted so far.
WARNING: Particle insertion: Inserting no particle - check particle insertion settings (../fix_insert.cpp:703)
WARNING: Particle insertion: Inserting no particle - check particle insertion settings (../fix_insert.cpp:703)
WARNING: Particle insertion: Inserting no particle - check particle insertion settings (../fix_insert.cpp:703)
WARNING: Particle insertion: Inserting no particle - check particle insertion settings (../fix_insert.cpp:703)
INFO: Particle insertion ins: inserted 1 particle templates (mass 2.261947e-01) at step 56601
 - a total of 57 particle templates (mass 1.289310e+01) inserted so far.
WARNING: Particle insertion: Inserting no particle - check particle insertion settings (../fix_insert.cpp:703)
WARNING: Particle insertion: Inserting no particle - check particle insertion settings (../fix_insert.cpp:703)
WARNING: Particle insertion: Inserting no particle - check particle insertion settings (../fix_insert.cpp:703)
   57000       57       6026.136       77.38085            224 
WARNING: Particle insertion: Inserting no particle - check particle insertion settings (../fix_insert.cpp:703)
WARNING: Particle insertion: Inserting no particle - check particle insertion settings (../fix_insert.cpp:703)
WARNING: Particle insertion: Inserting no particle - check particle insertion settings (../fix_insert.cpp:703)
WARNING: Particle insertion: Inserting no particle - check particle insertion settings (../fix_insert.cpp:703)
WARNING: Particle insertion: Inserting no particle - check particle insertion settings (../fix_insert.cpp:703)
WARNING: Particle insertion: Inserting no particle - check particle insertion settings (../fix_insert.cpp:703)
WARNING: Particle insertion: Inserting no particle - check particle insertion settings (../fix_insert.cpp:703)
WARNING: Particle insertion: Inserting no particle - check particle insertion settings (../fix_insert.cpp:703)
WARNING: Particle insertion: Inserting no particle - check particle insertion settings (../fix_insert.cpp:703)
WARNING: Particle insertion: Inserting no particle - check particle insertion settings (../fix_insert.cpp:703)
   58000       57      5201.4681      85.495614            224 
WARNING: Particle insertion: Inserting no particle - check particle insertion settings (../fix_insert.cpp:703)
WARNING: Particle insertion: Inserting no particle - check particle insertion settings (../fix_insert.cpp:703)
WARNING: Particle insertion: Inserting no particle - check particle insertion settings (../fix_insert.cpp:703)
WARNING: Particle insertion: Inserting no particle - check particle insertion settings (../fix_insert.cpp:703)
WARNING: Particle insertion: Inserting no particle - check particle insertion settings (../fix_insert.cpp:703)
WARNING: Particle insertion: Inserting no particle - check particle insertion settings (../fix_insert.cpp:703)
INFO: Particle insertion ins: inserted 1 particle templates (mass 2.261947e-01) at step 58601
 - a total of 58 particle templates (mass 1.311929e+01) inserted so far.
WARNING: Particle insertion: Inserting no particle - check particle insertion settings (../fix_insert.cpp:703)
WARNING: Particle insertion: Inserting no particle - check particle insertion settings (../fix_insert.cpp:703)
WARNING: Particle insertion: Inserting no particle - check particle insertion settings (../fix_insert.cpp:703)
   59000       58      5196.4643      89.611398            224 
WARNING: Particle insertion: Inserting no particle - check particle insertion settings (../fix_insert.cpp:703)
WARNING: Particle insertion: Inserting no particle - check particle insertion settings (../fix_insert.cpp:703)
WARNING: Particle insertion: Inserting no particle - check particle insertion settings (../fix_insert.cpp:703)
WARNING: Particle insertion: Inserting no particle - check particle insertion settings (../fix_insert.cpp:703)
WARNING: Particle insertion: Inserting no particle - check particle insertion settings (../fix_insert.cpp:703)
INFO: Particle insertion ins: inserted 1 particle templates (mass 2.261947e-01) at step 59501
 - a total of 59 particle templates (mass 1.334549e+01) inserted so far.
WARNING: Particle insertion: Inserting no particle - check particle insertion settings (../fix_insert.cpp:703)
WARNING: Particle insertion: Inserting no particle - check particle insertion settings (../fix_insert.cpp:703)
WARNING: Particle insertion: Inserting no particle - check particle insertion settings (../fix_insert.cpp:703)
WARNING: Particle insertion: Inserting no particle - check particle insertion settings (../fix_insert.cpp:703)
   60000       59      5611.7868      87.029043            224 
WARNING: Particle insertion: Inserting no particle - check particle insertion settings (../fix_insert.cpp:703)
WARNING: Particle insertion: Inserting no particle - check particle insertion settings (../fix_insert.cpp:703)
WARNING: Particle insertion: Inserting no particle - check particle insertion settings (../fix_insert.cpp:703)
INFO: Particle insertion ins: inserted 1 particle templates (mass 2.261947e-01) at step 60301
 - a total of 60 particle templates (mass 1.357168e+01) inserted so far.
WARNING: Particle insertion: Inserting no particle - check particle insertion settings (../fix_insert.cpp:703)
WARNING: Particle insertion: Inserting no particle - check particle insertion settings (../fix_insert.cpp:703)
WARNING: Particle insertion: Inserting no particle - check particle insertion settings (../fix_insert.cpp:703)
WARNING: Particle insertion: Inserting no particle - check particle insertion settings (../fix_insert.cpp:703)
WARNING: Particle insertion: Inserting no particle - check particle insertion settings (../fix_insert.cpp:703)
WARNING: Particle insertion: Inserting no particle - check particle insertion settings (../fix_insert.cpp:703)
   61000       60      6031.7967      83.961539            224 
WARNING: Particle insertion: Inserting no particle - check particle insertion settings (../fix_insert.cpp:703)
WARNING: Particle insertion: Inserting no particle - check particle insertion settings (../fix_insert.cpp:703)
WARNING: Particle insertion: Inserting no particle - check particle insertion settings (../fix_insert.cpp:703)
WARNING: Particle insertion: Inserting no particle - check particle insertion settings (../fix_insert.cpp:703)
WARNING: Particle insertion: Inserting no particle - check particle insertion settings (../fix_insert.cpp:703)
WARNING: Particle insertion: Inserting no particle - check particle insertion settings (../fix_insert.cpp:703)
WARNING: Particle insertion: Inserting no particle - check particle insertion settings (../fix_insert.cpp:703)
[...]
 2311000      198      1.0449479     0.56399729            224 
 2312000      198      1.0500153     0.56394221            224 
 2313000      198      1.0521615     0.56623311            224 
 2314000      198      1.0336243     0.56374968            224 
 2315000      198      1.0323018     0.56450307            224 
 2316000      198      1.0293247     0.55538689            224 
 2317000      198       1.027927     0.55376238            224 
 2318000      198      1.0224939     0.55277646            224 
 2319000      198      1.0200615     0.55078523            224 
 2320000      198      1.0156393     0.54997625            224 
 2321000      198      1.0139548     0.54807052            224 
 2322000      198      1.0092193     0.54761898            224 
 2323000      198      1.0075112     0.54494996            224 
 2324000      198      1.0030613     0.54400329            224 
 2325000      198      1.0002051      0.5417502            224 
 2326000      198     0.99315082     0.53833898            224 
 2327000      198       0.989036     0.53711333            224 
 2328000      198     0.98421158     0.53507813            224 
 2329000      198     0.98160563     0.53290258            224 
 2330000      198     0.97792032     0.53158584            224 
 2331000      198     0.97296326     0.53029818            224 
 2332000      198     0.96759766     0.52761551            224 
 2333000      198     0.96475664     0.52517993            224 
 2334000      198     0.96171758     0.52413636            224 
 2335000      198     0.95566427     0.52287314            224 
 2336000      198     0.95184608     0.51991938            224 
 2337000      198     0.94841062     0.51811987            224 
 2338000      198     0.94417318     0.51651001            224 
 2339000      198      0.9413297     0.51515561            224 
 2340000      198      0.9361449     0.51366799            224 
 2341000      198     0.93142699     0.51086277            224 
 2342000      198     0.92816098     0.50920912            224 
 2343000      198     0.92528774      0.5085579            224 
 2344000      198     0.92001501     0.50764254            224 
 2345000      198     0.91605387      0.5046288            224 
 2346000      198     0.91352765     0.50274308            224 
 2347000      198     0.91074349     0.50257617            224 
 2348000      198     0.90765627     0.50096168            224 
 2349000      198     0.90012807     0.49889057            224 
 2350000      198     0.89783014     0.49576193            224 
 2351000      198     0.89444583     0.49576514            224 
 2352000      198     0.89232469     0.49450138            224 
 2353000      198     0.88541079     0.49390463            224 
 2354000      198     0.88465792     0.49023365            224 
 2355000      198     0.88171988     0.49027305            224 
 2356000      198     0.87948994     0.48941788            224 
 2357000      198     0.87416721     0.48856948            224 
 2358000      198     0.87302887     0.48604073            224 
 2359000      198     0.87121043     0.48531823            224 
 2360000      198     0.86877202     0.48527491            224 
 2361000      198     0.86705763     0.48410769            224 
 2362000      198     0.86306079     0.48318891            224 
 2363000      198     0.86264464     0.48127582            224 
 2364000      198     0.86088274     0.48187827            224 
 2365000      198     0.86009061     0.48117159            224 
 2366000      198     0.85549273     0.48084565            224 
 2367000      198     0.85595972     0.47860559            224 
 2368000      198     0.85494596     0.47914966            224 
 2369000      198     0.85467828     0.47914825            224 
 2370000      198     0.85249818     0.47878487            224 
 2371000      198     0.85132412     0.47738647            224 
 2372000      198     0.85133227     0.47721839            224 
 2373000      198     0.85178093     0.47794527            224 
 2374000      198     0.84982134     0.47827038            224 
 2375000      198     0.84884131     0.47726649            224 
 2376000      198      0.8499421      0.4765344            224 
 2377000      198     0.85073279     0.47738438            224 
 2378000      198     0.84995925     0.47821078            224 
 2379000      198     0.85037376      0.4770106            224 
 2380000      198      0.8508092      0.4771962            224 
 2381000      198     0.85233291      0.4776663            224 
 2382000      198     0.85247801     0.47872891            224 
 2383000      198     0.85429709     0.47863273            224 
 2384000      198     0.85367435     0.47924752            224 
 2385000      198     0.85621903     0.47904986            224 
 2386000      198      0.8579181      0.4803188            224 
 2387000      198     0.85935536     0.48107278            224 
 2388000      198     0.85942085     0.48151675            224 
 2389000      198     0.86210763     0.48174894            224 
 2390000      198     0.86509192     0.48290113            224 
 2391000      198     0.86593182     0.48440898            224 
 2392000      198     0.86914403     0.48445659            224 
 2393000      198     0.86980172     0.48577625            224 
 2394000      198     0.87383356     0.48615017            224 
 2395000      198      0.8745929     0.48844814            224 
 2396000      198     0.87861098     0.48844952            224 
 2397000      198     0.87940369     0.49038417            224 
 2398000      198      0.8841413     0.49055231            224 
 2399000      198     0.88577945     0.49268329            224 
 2400000      198     0.88935505     0.49343025            224 
 2401000      198     0.89255055      0.4943074            224 
 2402000      198     0.89575051     0.49610587            224 
 2403000      198     0.89962306     0.49701843            224 
 2404000      198     0.90185456     0.49911159            224 
 2405000      198      0.9068848     0.50014345            224 
 2406000      198     0.90873677     0.50259295            224 
 2407000      198     0.91311931     0.50323702            224 
 2408000      198     0.91535441     0.50489535            224 
 2409000      198     0.92055994     0.50596451            224 
 2410000      198     0.92134749      0.5087951            224 
 2411000      198     0.92721202     0.50890217            224 
 2412000      198     0.92925097      0.5112563            224 
 2413000      198      0.9330092     0.51242013            224 
 2414000      198     0.93759963     0.51386352            224 
 2415000      198     0.94070874     0.51575359            224 
 2416000      198     0.94189496     0.51740029            224 
 2417000      198     0.94695105      0.5179045            224 
 2418000      198     0.95098001     0.51975576            224 
 2419000      198     0.95196658     0.52220653            224 
 2420000      198     0.95666419     0.52193138            224 
 2421000      198     0.95748735     0.52449528            224 
 2422000      198     0.96255971     0.52490113            224 
 2423000      198     0.96245342     0.52763595            224 
 2424000      198     0.96751967      0.5275204            224 
 2425000      198     0.96811695     0.52875908            224 
 2426000      198     0.97114846      0.5296655            224 
 2427000      198     0.97399182     0.53119634            224 
 2428000      198     0.97446957     0.53237371            224 
 2429000      198     0.97559988      0.5326928            224 
 2430000      198     0.97711874     0.53319295            224 
 2431000      198     0.97975174      0.5340786            224 
 2432000      198     0.97848379     0.53552712            224 
 2433000      198     0.97960002     0.53446808            224 
 2434000      198     0.98007697      0.5348509            224 
 2435000      198     0.98117933       0.535022            224 
 2436000      198     0.97979375     0.53598946            224 
 2437000      198     0.98027084     0.53473456            224 
 2438000      198     0.97942666     0.53458386            224 
 2439000      198     0.97876809     0.53438579            224 
 2440000      198     0.97881931     0.53422153            224 
 2441000      198     0.97652312     0.53386459            224 
 2442000      198     0.97479512     0.53252655            224 
 2443000      198     0.97305351      0.5316387            224 
 2444000      198     0.97276888     0.53117731            224 
 2445000      198     0.96860615     0.53079935            224 
 2446000      198     0.96646059     0.52869143            224 
 2447000      198     0.96409439     0.52713758            224 
 2448000      198     0.96279016     0.52627807            224 
 2449000      198     0.95795882     0.52571802            224 
 2450000      198     0.95556327     0.52312441            224 
 2451000      198     0.95301926     0.52120604            224 
 2452000      198     0.95027155     0.52035291            224 
 2453000      198     0.94706242     0.51920534            224 
 2454000      198     0.94322312       0.517238            224 
 2455000      198     0.93950641     0.51522178            224 
 2456000      198       0.935757     0.51367351            224 
 2457000      198     0.93335912      0.5125449            224 
 2458000      198     0.92903805     0.51127186            224 
 2459000      198     0.92378436     0.50869754            224 
 2460000      198     0.92112369     0.50663927            224 
 2461000      198     0.91769871     0.50583101            224 
 2462000      198     0.91257635     0.50460649            224 
 2463000      198     0.90857673     0.50209039            224 
 2464000      198     0.90528483     0.49991263            224 
 2465000      198     0.90219857     0.49877873            224 
 2466000      198     0.89767413     0.49782499            224 
 2467000      198     0.89357612     0.49566186            224 
 2468000      198     0.89043778     0.49328459            224 
 2469000      198     0.88746237     0.49228933            224 
 2470000      198     0.88457555     0.49134712            224 
 2471000      198     0.87967527     0.48939446            224 
 2472000      198     0.87642384     0.48730454            224 
 2473000      198     0.87362642     0.48644529            224 
 2474000      198     0.87129141     0.48577764            224 
 2475000      198     0.86689151     0.48461518            224 
 2476000      198     0.86342658     0.48222609            224 
 2477000      198     0.86121406     0.48111496            224 
 2478000      198     0.85869908     0.48065704            224 
 2479000      198     0.85486045     0.48000477            224 
 2480000      198     0.85181827     0.47795247            224 
 2481000      198     0.85046123     0.47643063            224 
 2482000      198     0.84816255     0.47626868            224 
 2483000      198     0.84544829     0.47547245            224 
 2484000      198     0.84205283     0.47440779            224 
 2485000      198     0.84154291     0.47253123            224 
 2486000      198     0.83990881     0.47274681            224 
 2487000      198     0.83884584     0.47218719            224 
 2488000      198     0.83449759     0.47161262            224 
 2489000      198     0.83454663     0.46958423            224 
 2490000      198     0.83346706     0.46998555            224 
 2491000      198     0.83286614     0.46994332            224 
 2492000      198     0.82935292     0.46956043            224 
 2493000      198     0.82954186     0.46771713            224 
 2494000      198      0.8290815     0.46795379            224 
 2495000      198     0.82927627     0.46837671            224 
 2496000      198     0.82698731     0.46845304            224 
 2497000      198      0.8266248     0.46698948            224 
 2498000      198     0.82704972     0.46676985            224 
 2499000      198     0.82752104     0.46780511            224 
 2500000      198     0.82762417     0.46760702            224 
Loop time of 776.681 on 1 procs for 2499999 steps with 198 atoms, finish time Sun May 25 15:02:55 2025


Pair  time (%) = 140.503 (18.0902)
Neigh time (%) = 0.262831 (0.0338403)
Comm  time (%) = 0.103893 (0.0133765)
Outpt time (%) = 4.93494 (0.635388)
Other time (%) = 630.876 (81.2272)

Nlocal:    198 ave 198 max 198 min
Histogram: 1 0 0 0 0 0 0 0 0 0
Nghost:    0 ave 0 max 0 min
Histogram: 1 0 0 0 0 0 0 0 0 0
Neighs:    12129 ave 12129 max 12129 min
Histogram: 1 0 0 0 0 0 0 0 0 0

Total # of neighbors = 12129
Ave neighs/atom = 61.2576
Neighbor list builds = 2613
Dangerous builds = 0
unfix  ins

unfix plugwall
run 100000
Setting up run at Sun May 25 15:02:55 2025

Memory usage per processor = 11.6875 Mbytes
    Step    Atoms         KinEng              1         Volume 
 2500000      198     0.82762417     0.46760702            224 
 2501000      198       1.033149     0.48074864            224 
 2502000      198      1.5489155      0.5235486            224 
 2503000      198      2.3594217     0.57625815            224 
 2504000      198      3.5238297     0.61794558            224 
 2505000      198      5.0684886     0.64645887            224 
 2506000      198      6.9928427     0.66451914            224 
 2507000      198      9.3114398     0.68488999            224 
 2508000      198      12.021101     0.70296399            224 
 2509000      198      15.104217     0.73234582            224 
 2510000      198      18.571365     0.75644372            224 
 2511000      198      22.414804     0.78023908            224 
 2512000      198      26.663413     0.80370463            224 
 2513000      198      31.280554      0.8244259            224 
 2514000      198       36.24589      0.8356455            224 
 2515000      198       41.65791     0.85223782            224 
 2516000      198      47.485115     0.87162584            224 
 2517000      198      53.762123     0.87976891            224 
 2518000      198       60.45514      0.8798415            224 
 2519000      198      67.546353     0.87969198            224 
 2520000      198      74.979916     0.88464689            224 
 2521000      198      82.844118     0.88635392            224 
 2522000      198      91.012771     0.83885163            224 
 2523000      198      99.658395     0.84257723            224 
 2524000      198      108.68012     0.85068829            224 
 2525000      198       118.1642     0.85309572            224 
 2526000      198      128.09604     0.84760194            224 
 2527000      198      138.35693     0.86298955            224 
 2528000      198      149.06627     0.87376786            224 
 2529000      198      160.16165     0.88517674            224 
 2530000      198      171.69016      0.8724439            224 
 2531000      198      183.65279     0.87241532            224 
 2532000      198      196.03018     0.87211407            224 
 2533000      198      208.82417     0.87356967            224 
 2534000      198      222.01401     0.87435836            224 
 2535000      198       235.5753     0.88345012            224 
 2536000      198      249.59279      0.8807485            224 
 2537000      198      264.01632     0.88079072            224 
 2538000      198      278.84566     0.88244387            224 
 2539000      198      294.08274      0.8830585            224 
 2540000      198      309.72532     0.88432575            224 
 2541000      198      325.77794     0.88536003            224 
 2542000      198       342.2361     0.88730132            224 
 2543000      198       359.1022     0.88936846            224 
 2544000      198       376.3746     0.88893927            224 
 2545000      198      394.05466     0.88927088            224 
 2546000      198      412.14347     0.89179292            224 
 2547000      198      430.63698     0.89489908            224 
 2548000      198      449.53696     0.89711785            224 
 2549000      198      468.84459     0.89804869            224 
 2550000      198      488.55983     0.90094927            224 
 2551000      198       508.6837     0.90299529            224 
 2552000      198      529.20827     0.90330454            224 
 2553000      198      550.14542     0.90029764            224 
 2554000      193       553.8901     0.88897458            224 
 2555000      193      575.01598     0.88810478            224 
 2556000      172      521.23311     0.86728382            224 
 2557000      172      540.50124     0.86913059            224 
 2558000      140      441.97607     0.81179342            224 
 2559000      104      325.54921     0.71085424            224 
 2560000      104      337.12011     0.71180975            224 
 2561000       68      210.79834     0.60187802            224 
 2562000       68      218.08354     0.59966401            224 
 2563000       29      70.214236      0.5276826            224 
 2564000       12      4.7985844     0.50256095            224 
 2565000       12       4.929426     0.50479238            224 
 2566000       11     0.89667166     0.50305022            224 
 2567000       11     0.89869717      0.5044844            224 
 2568000       11     0.90257355     0.50578468            224 
 2569000       11     0.90287631     0.50763983            224 
 2570000       11     0.90496606     0.50705551            224 
 2571000       11     0.90683881     0.50742443            224 
 2572000       11     0.90906916     0.50849347            224 
 2573000       11     0.90944446     0.50931515            224 
 2574000       11     0.90998448     0.50977842            224 
 2575000       11     0.91174178     0.50937096            224 
 2576000       11     0.91085273     0.51085797            224 
 2577000       11     0.91295549     0.50990396            224 
 2578000       11     0.91297178     0.51066303            224 
 2579000       11     0.91163754     0.51139386            224 
 2580000       11     0.91306867     0.50983344            224 
 2581000       11     0.91383909     0.51077595            224 
 2582000       11     0.91167999     0.51171243            224 
 2583000       11     0.91148068     0.51025014            224 
 2584000       11     0.91252623     0.50985763            224 
 2585000       11     0.90857421     0.51133335            224 
 2586000       11     0.91075367     0.50947291            224 
 2587000       11     0.90854309      0.5104853            224 
 2588000       11     0.90551572     0.50969909            224 
 2589000       11     0.90644035     0.50799054            224 
 2590000       11     0.90614756     0.50884476            224 
 2591000       11     0.90083048     0.50862704            224 
 2592000       11      0.9016037     0.50606606            224 
 2593000       11     0.89830895     0.50640542            224 
 2594000       11     0.89707193      0.5056005            224 
 2595000       11     0.89635533     0.50476539            224 
 2596000       11     0.89048263     0.50489287            224 
 2597000       11     0.89100751     0.50213498            224 
 2598000       11     0.88762453     0.50217654            224 
 2599000       11     0.88531617     0.50103581            224 
 2600000       11     0.88203442     0.50006899            224 
Loop time of 13.6672 on 1 procs for 100000 steps with 11 atoms, finish time Sun May 25 15:03:08 2025


Pair  time (%) = 2.58725 (18.9304)
Neigh time (%) = 0.00415182 (0.030378)
Comm  time (%) = 0.00392532 (0.0287207)
Outpt time (%) = 0.117505 (0.859759)
Other time (%) = 10.9544 (80.1508)

Nlocal:    11 ave 11 max 11 min
Histogram: 1 0 0 0 0 0 0 0 0 0
Nghost:    0 ave 0 max 0 min
Histogram: 1 0 0 0 0 0 0 0 0 0
Neighs:    29 ave 29 max 29 min
Histogram: 1 0 0 0 0 0 0 0 0 0

Total # of neighbors = 29
Ave neighs/atom = 2.63636
Neighbor list builds = 30
Dangerous builds = 0

