ITEM: TIMESTEP
4800
ITEM: NUMBER OF ATOMS
1800
ITEM: BOX BOUNDS mm mm mm
-0.05 0.05
-0.05 0.05
0 0.15
ITEM: ATOMS id type x y z ix iy iz vx vy vz fx fy fz omegax omegay omegaz radius 
817 1 0.0146963 -0.0451591 0.00256147 0 0 0 -0.325438 -0.17425 -0.0788732 0 0 -0.00160516 52.6706 76.3311 -0.0285283 0.0025 
149 1 -0.000115648 -0.0435476 0.00301276 0 0 0 -0.149501 -0.510739 0.23498 -0.283458 0.399973 0.0227786 76.8328 70.773 105.1 0.0025 
235 1 -0.0270329 -0.0372899 0.00311489 0 0 0 -0.105376 -0.131534 0.170328 0 0 -0.00160516 -58.5509 7.07126 -16.1501 0.0025 
1278 1 -0.0148335 -0.0374358 0.00449018 0 0 0 -0.142965 0.372016 0.303938 0 0 -0.00160516 80.9551 -39.6382 -6.78828 0.0025 
76 1 -0.0037621 -0.0352806 0.00307176 0 0 0 0.0901034 0.127747 0.542047 0 0 -0.00160516 36.6216 6.60521 96.4394 0.0025 
1030 1 0.00108724 -0.0325373 0.00316682 0 0 0 -0.272387 0.234111 0.591869 0 0 -0.00160516 -1.34152 -43.603 1.51632 0.0025 
616 1 -0.0238979 -0.0307713 0.00609179 0 0 0 -0.0617478 -0.281092 -0.547582 0.00226453 0.0145622 -0.051895 -15.7732 47.0516 14.01 0.0025 
1131 1 0.00683247 -0.0314802 0.00450911 0 0 0 -0.12249 -0.247245 0.334709 0.00958348 0.00934889 -0.0610792 -17.5986 -77.8542 11.2934 0.0025 
196 1 0.00657819 -0.0264665 0.0033605 0 0 0 -0.490105 0.0540428 -0.106133 0 0 -0.00160516 -5.96944 24.3086 -0.646991 0.0025 
886 1 0.0214368 -0.0304318 0.00309911 0 0 0 0.326432 -0.505511 -0.211386 0 0 -0.00160516 13.3458 27.8755 18.9644 0.0025 
1002 1 -0.0316783 -0.0255102 0.00273578 0 0 0 0.276825 0.0602195 -0.19497 0 0 -0.00160516 -75.572 -7.83554 30.6868 0.0025 
1568 1 -0.0045991 -0.0257894 0.00379261 0 0 0 -0.307808 -0.232291 0.136899 0 0 -0.00160516 -19.518 20.408 -38.796 0.0025 
364 1 0.0177046 -0.02393 0.00241523 0 0 0 0.480507 -0.22594 0.0543358 -0.00791522 0.00174585 0.160504 48.9125 0.451763 56.087 0.0025 
1679 1 -0.0347442 -0.0213858 0.00241165 0 0 0 -0.261107 0.00115207 0.072998 0.00813353 -0.00281685 0.170545 17.2279 -55.2459 -3.19488 0.0025 
1532 1 -0.0183062 -0.0189001 0.00252142 0 0 0 -0.421988 -0.174078 0.121459 -0.00633059 0.00283955 -0.00805993 51.4072 -4.36767 -13.5702 0.0025 
1391 1 -0.00434851 -0.0208523 0.00270064 0 0 0 -0.0109588 0.377003 -0.413842 0 0 -0.00160516 20.3444 28.7002 15.1441 0.0025 
1303 1 0.0097501 -0.0222708 0.00428205 0 0 0 -0.0180315 0.190855 -0.037135 0 0 -0.00160516 -9.40088 -21.3681 -8.01652 0.0025 
420 1 -0.0278814 -0.018234 0.004302 0 0 0 0.425993 -0.157857 0.244438 0 0 -0.00160516 62.867 -15.2964 -8.88631 0.0025 
1751 1 -0.00601462 -0.0161808 0.00335585 0 0 0 0.43236 -0.170232 0.31091 0 0 -0.00160516 -39.0267 -45.996 -53.5108 0.0025 
1478 1 0.00760705 -0.0162243 0.00274795 0 0 0 0.280291 0.0661168 -0.280254 0 0 -0.00160516 31.1466 -6.95204 -40.9868 0.0025 
54 1 -0.0202794 -0.0126417 0.00301519 0 0 0 0.351961 0.427579 -0.0381416 -0.002094 0.000713512 -0.00293346 114.31 -50.6113 58.4949 0.0025 
1490 1 0.00148069 -0.0119827 0.00255748 0 0 0 -0.172464 -0.0316181 -0.582697 0 0 -0.00160516 -28.5313 85.2941 -42.4345 0.0025 
311 1 0.0130469 -0.0135964 0.0029074 0 0 0 -0.156926 0.308671 0.454284 0.00291593 -0.0068601 -0.0061142 -84.0986 26.0863 -45.7273 0.0025 
1392 1 0.0324363 -0.0177769 0.00395242 0 0 0 0.0730125 -0.504818 0.222769 0 0 -0.00160516 83.9868 24.8444 -18.1455 0.0025 
1754 1 -0.025436 -0.0119336 0.00329858 0 0 0 0.277542 0.188222 0.348411 0 0 -0.00160516 12.9452 0.272245 43.432 0.0025 
1358 1 -0.012537 -0.00750683 0.00313169 0 0 0 -0.297603 0.258755 0.364624 0 0 -0.00160516 -25.6486 -42.7514 -68.4938 0.0025 
47 1 -0.00205451 -0.00788662 0.00429383 0 0 0 -0.132424 -0.180883 0.0636489 0 0 -0.00160516 63.171 -11.475 0.466192 0.0025 
785 1 0.00727264 -0.00883917 0.00303866 0 0 0 0.703231 0.102858 -0.144511 0 0 -0.00160516 13.8198 -20.5029 -47.7243 0.0025 
1390 1 0.0366374 -0.0106959 0.00435405 0 0 0 -0.255521 0.0707927 0.371111 0 0 -0.00160516 -25.8013 -35.6305 96.467 0.0025 
517 1 -0.0275919 -0.00683958 0.00271091 0 0 0 -0.565237 -0.415149 -0.604215 -0.0512239 -0.0126252 -0.0599817 5.33725 16.9557 42.9438 0.0025 
1411 1 -0.0175012 -0.00570705 0.00379418 0 0 0 0.0305107 -0.0858052 -0.0119494 0 0 -0.00160516 -42.2763 35.8015 -52.1841 0.0025 
1626 1 0.0202846 -0.000613584 0.00267922 0 0 0 0.171382 0.388161 0.20001 -0.0011222 0.00628187 -0.00868723 -80.7354 20.0752 71.7257 0.0025 
1711 1 0.0262888 -0.00645181 0.00286596 0 0 0 0.128105 -0.030661 -0.155217 0 0 -0.00160516 -7.83881 -12.1327 -3.09148 0.0025 
1226 1 0.0439345 -0.00335193 0.00300313 0 0 0 0.00555187 0.438513 0.0175639 0 0 -0.00160516 16.1681 -69.089 18.5651 0.0025 
133 1 -0.0240499 -0.00205581 0.00255042 0 0 0 -0.432952 0.233316 -0.0386804 0 0 -0.00160516 7.19827 -57.437 22.1399 0.0025 
645 1 0.00610055 -0.00199938 0.00305568 0 0 0 0.0950364 0.137486 -0.0287624 0 0 -0.00160516 17.9419 18.5796 -44.3284 0.0025 
1059 1 -0.0473517 0.00135131 0.00587266 0 0 0 -0.774854 0.143552 0.571903 0 0 -0.00160516 -75.2074 -8.11992 -19.7249 0.0025 
1515 1 -0.0176837 0.000743472 0.00259764 0 0 0 -0.175855 0.0302009 0.562632 -0.0230853 -0.018841 -0.00170904 -29.7583 -59.126 48.7618 0.0025 
1643 1 0.0149234 0.00195051 0.00273565 0 0 0 -0.0502983 0.248716 0.025738 0.299191 0.0693968 -0.0589776 11.3839 -19.6988 48.3589 0.0025 
1557 1 0.0277637 -4.00122e-05 0.00340411 0 0 0 0.164239 -0.247184 0.202549 0 0 -0.00160516 -2.93764 41.2575 -27.9462 0.0025 
436 1 -0.0407793 0.00625548 0.00297699 0 0 0 0.00743106 0.106795 0.711958 0.00665033 -0.00784504 -0.0372616 -26.7192 -2.43011 -3.79037 0.0025 
1016 1 -0.0251868 0.00341819 0.00290602 0 0 0 -0.00163034 -0.103173 -0.0719688 0 0 -0.00160516 -23.3204 -29.305 -16.3402 0.0025 
949 1 -0.00118062 0.00835886 0.00501191 0 0 0 -0.394191 0.235425 0.125872 0 0 -0.00160516 -48.464 5.37937 -10.9415 0.0025 
1021 1 0.0119572 0.00600973 0.00226835 0 0 0 -0.0285728 0.12477 0.323872 0.0170007 -0.0322347 0.727257 -42.0184 -6.56633 -35.2723 0.0025 
1494 1 0.0211119 0.00976531 0.00288146 0 0 0 0.0965875 -0.153237 -0.0825893 0.073083 -0.0304969 -0.0983402 -131.947 -6.54705 36.8492 0.0025 
473 1 0.0300839 0.00695757 0.00254821 0 0 0 -0.355373 0.223084 0.134734 0 0 -0.00160516 -35.1068 0.588968 -9.35378 0.0025 
202 1 -0.0175407 0.00922749 0.00265551 0 0 0 -0.130277 -0.060748 0.0747812 0 0 -0.00160516 -62.2464 37.7705 -52.9732 0.0025 
315 1 0.00617876 0.00815867 0.00431991 0 0 0 0.290304 -0.0658171 0.233804 0 0 -0.00160516 5.53988 28.6248 2.23242 0.0025 
1106 1 0.0380598 0.0107374 0.00501937 0 0 0 0.268252 0.332115 -0.654609 0 0 -0.00160516 -5.69162 -95.924 53.3012 0.0025 
447 1 -0.033913 0.0104224 0.00264465 0 0 0 -0.0249376 -0.0766169 0.24261 0 0 -0.00160516 4.98411 27.3274 -15.332 0.0025 
685 1 -0.00491231 0.0113602 0.00283529 0 0 0 0.0735565 -0.0377269 0.103302 0 0 -0.00160516 43.8348 8.40752 11.1681 0.0025 
1732 1 0.00491079 0.0134155 0.00251136 0 0 0 -0.180636 0.156132 -0.162834 0 0 -0.00160516 -43.8168 -7.52925 10.9417 0.0025 
430 1 0.0152621 0.0124899 0.00277405 0 0 0 -0.0327272 -0.0793513 -0.00653176 0 0 -0.00160516 16.4904 30.0047 13.5519 0.0025 
1279 1 0.0324498 0.0133238 0.00785994 0 0 0 0.203652 -0.183882 0.256947 0 0 -0.00160516 -9.90818 64.5444 17.2507 0.0025 
159 1 -0.040424 0.0172094 0.00246929 0 0 0 -0.533633 0.336695 -0.689691 0.00199409 -0.00120049 0.0449461 3.24126 15.7002 6.45727 0.0025 
519 1 -0.0252168 0.0169366 0.00250255 0 0 0 0.0916666 -0.3038 -0.283121 0.0135038 -0.0927665 -0.0743327 7.15058 19.5288 51.6101 0.0025 
565 1 -0.0158201 0.0150334 0.00291639 0 0 0 0.00956003 0.107323 0.199658 0 0 -0.00160516 -15.8524 81.2314 -19.1375 0.0025 
49 1 -0.00653651 0.0181846 0.00453667 0 0 0 0.226459 -0.0190453 0.194213 0 0 -0.00160516 1.34869 41.1332 -11.6674 0.0025 
1245 1 9.53697e-05 0.0150437 0.00264628 0 0 0 0.101187 -0.275827 -0.160899 0 0 -0.00160516 -61.0056 7.95257 22.7448 0.0025 
1721 1 0.0200498 0.0169804 0.00278073 0 0 0 0.15682 0.378968 -0.532785 0 0 -0.00160516 48.8471 9.59431 -59.502 0.0025 
327 1 0.0345177 0.0151924 0.00330608 0 0 0 0.034461 -0.582398 -0.0191227 0 0 -0.00160516 -41.7429 10.1957 -57.3112 0.0025 
1600 1 -0.0263998 0.0217066 0.00233568 0 0 0 -0.343233 0.241677 0.490866 -0.0314333 0.0715601 0.388548 25.2074 -35.3851 62.0435 0.0025 
679 1 -0.0188236 0.0217177 0.00324214 0 0 0 -0.00329373 0.166284 0.376344 0 0 -0.00160516 -63.5805 14.2132 18.6797 0.0025 
343 1 0.0153871 0.0197723 0.00499723 0 0 0 0.00794007 0.213963 0.287533 0.177103 -0.0178907 -0.142431 -61.9258 37.082 -89.8461 0.0025 
1231 1 -0.0377328 0.0247149 0.00296563 0 0 0 0.0954358 -0.127738 -0.145662 0.0029338 -0.00329517 -0.00994727 -11.8199 -24.3864 -34.9879 0.0025 
387 1 0.00315834 0.025796 0.00377919 0 0 0 0.16152 0.575235 -0.168004 0 0 -0.00160516 75.5057 -30.3278 -28.7451 0.0025 
1799 1 0.0156506 0.0246777 0.00307373 0 0 0 0.562486 0.00299458 -0.400115 0.103403 -0.0983675 -0.184558 0.86737 -43.9353 -25.4897 0.0025 
1400 1 0.0282263 0.0257108 0.00479919 0 0 0 0.00134534 -0.0420486 0.261253 0.0354254 0.0460739 -0.0168475 -60.7558 16.0884 -62.0849 0.0025 
1685 1 -0.0321982 0.0278154 0.00355884 0 0 0 0.374536 0.350548 -0.0997021 0 0 -0.00160516 28.7622 -3.40622 -22.5501 0.0025 
1306 1 -0.0263075 0.027537 0.00296696 0 0 0 -0.1033 0.374885 0.123613 0 0 -0.00160516 43.1704 -67.4309 -20.6108 0.0025 
1163 1 -0.0133754 0.0317754 0.0024898 0 0 0 0.0547164 -0.0856395 0.200672 0.0086993 -0.0131633 -0.00842578 -7.85421 -65.2079 55.7146 0.0025 
443 1 0.00553424 0.0316806 0.00235968 0 0 0 -0.0105464 0.445212 -0.00694193 -0.00898351 -0.0148896 0.346191 64.5202 -153.808 22.2153 0.0025 
1058 1 0.0110361 0.0300555 0.00264588 0 0 0 0.380353 0.0262836 0.107335 0 0 -0.00160516 -33.7899 -68.1571 -17.7892 0.0025 
999 1 0.0127938 0.0358099 0.00608274 0 0 0 0.310729 0.0835567 0.453169 0 0 -0.00160516 -27.9405 16.2277 6.43902 0.0025 
1522 1 0.0183097 0.0368966 0.00300412 0 0 0 0.0990738 -0.0265492 -0.362062 0 0 -0.00160516 15.4632 -11.1012 -60.0637 0.0025 
361 1 0.0190459 0.0308513 0.00249612 0 0 0 -0.162811 0.0406077 0.180863 0.00438654 0.00367871 -0.0136127 -25.6759 0.173898 -26.8628 0.0025 
1498 1 -0.0182781 0.0387153 0.00370093 0 0 0 -0.0175381 0.452616 -0.250147 0.190548 -0.173647 0.0525466 -76.5 -15.0457 43.5655 0.0025 
1533 1 -0.00203393 0.0383456 0.00296059 0 0 0 0.0409002 -0.342079 0.33381 0 0 -0.00160516 26.4193 -25.672 26.6049 0.0025 
1457 1 0.0297812 0.0368772 0.00253393 0 0 0 0.215349 -0.758764 -0.0370722 0 0 -0.00160516 6.664 -20.9414 58.23 0.0025 
193 1 -0.00775208 0.0431874 0.00309132 0 0 0 -0.327759 0.178016 -0.359252 0 0 -0.00160516 16.8484 15.0082 -52.6161 0.0025 
947 1 0.0158964 0.0416624 0.00395103 0 0 0 0.0863864 0.522856 0.249069 0 0 -0.00160516 -80.3439 -54.1311 48.2053 0.0025 
228 1 0.024294 0.0393961 0.00303162 0 0 0 0.435577 0.0325866 0.174772 0 0 -0.00160516 34.6689 -17.8854 20.9545 0.0025 
1287 1 -0.00206808 0.0448064 0.002283 0 0 0 -0.231385 0.127779 -0.466325 0.0288733 -0.0180165 0.679059 18.7974 19.0362 25.0831 0.0025 
1181 1 0.0101894 0.0440833 0.00299676 0 0 0 0.263725 0.160443 -0.333265 0 0 -0.00160516 110.015 -55.8231 90.1451 0.0025 
62 1 -0.0163156 -0.0439 0.0026974 0 0 0 -0.02645 -0.5482 0.487252 0 0 -0.00160516 75.1281 -1.23382 13.7045 0.0025 
1168 1 -0.00712298 -0.0436192 0.00311509 0 0 0 -0.616838 -0.408194 -0.491675 0 0 -0.00160516 91.5547 69.937 9.93186 0.0025 
823 1 0.0026801 -0.0473951 0.00254403 0 0 0 0.00777982 0.012047 -0.310883 0.283458 -0.399973 -0.0259889 -39.0688 9.55038 41.1546 0.0025 
194 1 -0.0210662 -0.0409966 0.00335603 0 0 0 -0.0508239 0.345245 -0.189607 0 0 -0.00160516 -102.457 19.2611 -9.32073 0.0025 
1708 1 -0.0122709 -0.0428568 0.00553428 0 0 0 0.063125 -0.0890749 -0.729666 0 0 -0.00160516 38.7484 98.6214 -52.4999 0.0025 
187 1 0.0201862 -0.0410302 0.00256523 0 0 0 0.0242192 0.549753 -0.606232 0 0 -0.00160516 -53.5747 -4.51715 5.77845 0.0025 
1072 1 0.00178868 -0.039178 0.00683591 0 0 0 0.00533506 0.139941 0.0092183 0.00306056 0.110699 -0.212709 -25.4927 -23.7955 41.6736 0.0025 
1617 1 0.00829776 -0.0371616 0.00251369 0 0 0 0.321466 -0.316838 -0.839288 0 0 -0.00160516 66.6215 -11.0421 -12.8994 0.0025 
678 1 0.0167419 -0.0372355 0.00423315 0 0 0 -0.320736 -0.339161 -0.322891 0 0 -0.00160516 22.9134 -81.9785 -16.4854 0.0025 
71 1 0.0267958 -0.0374685 0.00256406 0 0 0 0.0844342 -0.550701 0.198875 0 0 -0.00160516 10.2092 54.4022 -47.4296 0.0025 
1768 1 -0.0326694 -0.0309493 0.00335618 0 0 0 -0.25652 -0.194888 0.11705 0 0 -0.00160516 -113.378 31.9704 -83.5591 0.0025 
566 1 -0.0223983 -0.0342175 0.00280676 0 0 0 -0.443858 -0.121904 0.434484 0.00299556 -0.00622791 -0.00816934 26.8435 -59.17 14.4799 0.0025 
182 1 -0.00931466 -0.034653 0.00241662 0 0 0 -0.37409 0.206766 -0.0263731 0.00591366 -0.00537018 0.158158 37.8516 -17.8662 1.89211 0.0025 
75 1 0.0247908 -0.0343265 0.006225 0 0 0 0.154304 -0.0656773 0.416089 -0.127095 -0.0436645 -0.211155 23.5733 63.9157 28.487 0.0025 
802 1 -0.0292802 -0.0305085 0.00720469 0 0 0 0.165357 -0.18945 0.298781 0 0 -0.00160516 92.0667 -20.7524 -31.8792 0.0025 
1418 1 -0.016628 -0.0318105 0.00336943 0 0 0 0.0240296 0.0614781 -0.111558 0 0 -0.00160516 33.5337 -81.7096 48.0359 0.0025 
603 1 -0.00908618 -0.0305833 0.00558455 0 0 0 -0.385403 -0.209463 0.231184 0.000153788 -0.0097913 -0.0163315 80.8803 -26.7746 34.1628 0.0025 
15 1 -0.0029505 -0.0303968 0.00576832 0 0 0 -0.519358 -0.00395919 -0.00885893 0 0 -0.00160516 -31.7713 50.886 -40.6144 0.0025 
10 1 0.0165677 -0.0321689 0.00280699 0 0 0 0.174796 -0.209477 0.300633 0 0 -0.00160516 32.1412 7.02657 30.6699 0.0025 
1585 1 -0.0369151 -0.0279368 0.00541105 0 0 0 -0.30576 -0.61271 -0.0244213 0.0175356 -0.036701 0.00108366 -18.715 -11.3119 -70.2336 0.0025 
444 1 -0.0196981 -0.0264163 0.00419926 0 0 0 -0.0314547 0.259171 -0.27848 0 0 -0.00160516 25.2551 14.7908 29.5036 0.0025 
168 1 -0.0127061 -0.0277854 0.00357334 0 0 0 0.0223166 -0.141955 -0.748691 0.000118489 -9.51481e-05 -0.00152964 -10.0476 98.1193 33.5784 0.0025 
1471 1 0.00804034 -0.0275321 0.0084816 0 0 0 0.716733 -0.202356 -0.111453 0 0 -0.00160516 8.24775 -48.3787 -2.27012 0.0025 
740 1 0.0121087 -0.0286459 0.0047287 0 0 0 -0.248004 -0.574724 -0.058101 0 0 -0.00160516 40.345 -15.8659 -12.5232 0.0025 
1740 1 0.0246983 -0.0237647 0.00329142 0 0 0 -0.137158 0.506116 -0.465546 0 0 -0.00160516 -15.1356 -79.701 -56.3438 0.0025 
9 1 0.0297981 -0.0269746 0.00563892 0 0 0 -0.0449628 -0.402732 0.20893 0 0 -0.00160516 -31.2153 0.490119 -48.9001 0.0025 
408 1 -0.0388204 -0.0233766 0.00506804 0 0 0 0.621914 0.30573 -0.301093 -0.0175356 0.036701 -0.00429398 -54.8995 15.0205 67.013 0.0025 
1341 1 0.00102942 -0.0223053 0.00305507 0 0 0 0.0982431 -0.478468 0.380883 0 0 -0.00160516 1.6956 -7.36056 6.39371 0.0025 
548 1 0.0209617 -0.0267434 0.0071985 0 0 0 -0.113525 0.255855 0.0817609 -0.000396349 0.000351778 -0.001803 21.3306 27.8541 -31.5242 0.0025 
342 1 0.0343875 -0.0244731 0.00455623 0 0 0 0.455543 -0.314064 0.0120318 0 0 -0.00160516 51.3169 -34.5301 -97.8006 0.0025 
1036 1 -0.0432402 -0.0192793 0.00305405 0 0 0 -0.394014 0.220422 0.156551 0 0 -0.00160516 -57.6104 52.8407 -49.2722 0.0025 
1770 1 -0.00943344 -0.0209574 0.00399661 0 0 0 0.11796 0.0531135 0.387894 0 0 -0.00160516 -33.7668 -5.85267 59.5083 0.0025 
1256 1 0.0233348 -0.0186644 0.00693393 0 0 0 0.291096 0.173479 -0.058128 0 0 -0.00160516 -43.4303 -44.2561 -1.92608 0.0025 
1800 1 0.0380688 -0.0208715 0.00431257 0 0 0 0.536111 -0.327451 0.341015 0 0 -0.00160516 108.766 44.3944 32.3745 0.0025 
693 1 -0.0378192 -0.0176832 0.00401331 0 0 0 0.164715 0.313094 0.127817 0 0 -0.00160516 7.56788 -13.5894 -26.1445 0.0025 
778 1 -0.0119855 -0.0156218 0.00243362 0 0 0 0.226118 0.168714 0.630396 -0.0185488 0.00280586 0.0609692 34.5472 -11.2786 3.30716 0.0025 
322 1 0.0186863 -0.0180992 0.00280466 0 0 0 0.0493288 -0.116582 0.664673 0 0 -0.00160516 36.5813 15.0816 -60.6606 0.0025 
288 1 0.0298589 -0.0226876 0.00305669 0 0 0 0.286785 -0.442645 -0.593542 0 0 -0.00160516 -118.276 -124.186 -19.1866 0.0025 
704 1 -0.0163327 -0.0142451 0.00562532 0 0 0 -0.305215 -0.312671 0.0370413 0.002094 -0.000713512 -0.000276856 56.7651 -59.6388 25.2711 0.0025 
368 1 0.0170274 -0.00970615 0.00398583 0 0 0 0.141775 0.287254 -0.0534132 0 0 -0.00160516 49.9733 -52.6671 30.7023 0.0025 
960 1 0.0206621 -0.0136358 0.00400229 0 0 0 -0.286659 0.163555 -0.470862 0 0 -0.00160516 -41.3578 -44.8956 12.9182 0.0025 
1085 1 0.0410957 -0.014833 0.00340481 0 0 0 0.88878 -0.188903 0.487047 0 0 -0.00160516 -107.359 107.017 66.3823 0.0025 
792 1 -0.045678 -0.00906167 0.00784035 0 0 0 0.772366 0.050234 -0.0418632 -0.00297661 0.00787301 0.00951635 3.29433 39.0664 -66.1446 0.0025 
514 1 -0.039507 -0.0108808 0.00358515 0 0 0 -0.329863 -0.229522 -0.444779 0 0 -0.00160516 -30.5485 -11.7174 -34.0832 0.0025 
744 1 -0.0303581 -0.0109109 0.00398332 0 0 0 0.282525 0.096191 -0.557896 0 0 -0.00160516 -127.565 -1.34951 -36.7039 0.0025 
1227 1 -0.00930689 -0.0112499 0.00425616 0 0 0 -0.0258337 -0.0865316 -0.380952 0.00979793 -0.00583821 -0.0126755 -9.38151 -40.7543 -0.901888 0.0025 
562 1 0.0115985 -0.00955698 0.00546012 0 0 0 0.378447 -0.24608 -0.182064 -0.00291593 0.0068601 0.00290388 -0.107398 22.7115 29.4834 0.0025 
1759 1 -0.0356442 -0.00770436 0.00352892 0 0 0 -0.287892 -0.519508 -0.535956 2.88586e-05 0.00030051 -0.00142863 -45.4077 -30.8 13.4457 0.0025 
296 1 -0.0243598 -0.00581716 0.00628742 0 0 0 0.0764312 0.292006 0.0520834 0.0512239 0.0126252 0.0567714 -55.9509 -46.3454 -3.80134 0.0025 
1337 1 -0.00630037 -0.00424367 0.0039467 0 0 0 0.321164 0.340767 -0.373712 -0.0238036 -0.028834 0.00788643 38.6197 -26.7684 -69.5556 0.0025 
1145 1 0.00156366 -0.0042892 0.00376149 0 0 0 -0.161777 0.13466 0.0202469 0 0 -0.00160516 -65.0069 38.247 56.5978 0.0025 
373 1 0.0207994 -0.00407971 0.00622762 0 0 0 0.0978936 0.415882 -0.239575 0.0011222 -0.00628187 0.00547691 7.42083 -13.9659 -15.5974 0.0025 
836 1 0.0381471 -0.00499355 0.00393628 0 0 0 0.155754 -0.358246 -0.446953 -0.0251789 0.00272137 -0.0285178 -23.9135 16.5864 8.30627 0.0025 
267 1 -0.0420361 0.000455517 0.00280681 0 0 0 -0.16197 0.0868907 -0.426577 0 0 -0.00160516 23.4362 -5.60535 16.9481 0.0025 
864 1 -0.00943423 -0.000117004 0.00492815 0 0 0 -0.306564 -0.0156422 -0.16962 0 0 -0.00160516 77.4308 10.4229 -24.6919 0.0025 
1109 1 -0.00341817 -0.000371701 0.00277732 0 0 0 -0.485034 -0.237994 0.0916539 0.0238036 0.028834 -0.0110967 21.7745 24.9385 -5.53192 0.0025 
53 1 0.0104383 -0.00453824 0.00647612 0 0 0 0.319384 -0.17309 0.443043 0 0 -0.00160516 -6.14451 -28.1398 -4.9765 0.0025 
217 1 0.030035 -0.00267491 0.0078557 0 0 0 0.339921 -0.105663 -0.118774 0 0 -0.00160516 35.0225 16.8936 -42.7488 0.0025 
251 1 0.0319079 -0.00433976 0.00348608 0 0 0 -0.447974 -0.229814 -0.262682 0 0 -0.00160516 -6.30151 -24.0855 4.33164 0.0025 
400 1 -0.0293815 0.000187913 0.00406246 0 0 0 0.00290601 -0.107416 -0.589594 -0.00264531 -3.17435e-05 -0.0217415 -0.302116 -80.5148 45.0378 0.0025 
849 1 0.00198118 0.00115756 0.00264986 0 0 0 0.0211718 -0.159373 0.148278 0 0 -0.00160516 41.9427 14.5626 -12.6668 0.0025 
695 1 0.0103386 0.000647329 0.00356207 0 0 0 0.407529 0.000867598 -0.198353 -0.299191 -0.0693968 0.0557673 31.7643 6.93561 -53.766 0.0025 
1497 1 0.0396621 -0.000175711 0.00414095 0 0 0 0.341971 0.19849 0.103285 0 0 -0.00160516 7.76895 36.8292 -12.1049 0.0025 
874 1 -0.0418887 0.00719252 0.00772337 0 0 0 -0.227675 -0.0527332 0.208441 -0.00665033 0.00784504 0.0340513 -22.3824 13.591 5.24213 0.0025 
1761 1 -0.0334506 0.00417845 0.00330218 0 0 0 -0.283772 -0.237014 -0.281444 0.0415504 -0.0237327 -0.29471 -107.167 16.9543 37.0959 0.0025 
831 1 -0.0137957 0.00382655 0.00237693 0 0 0 -0.225211 -0.230524 0.00122277 0.0295845 0.0315507 0.283998 -55.9023 -15.9127 -43.3787 0.0025 
1321 1 0.0254459 0.00476371 0.00465708 0 0 0 0.375579 -0.0646034 -0.243233 0 0 -0.00160516 9.56436 -88.9428 -1.16975 0.0025 
122 1 0.0407978 0.00903828 0.00899282 0 0 0 -0.194606 -0.0846517 0.338016 0.0663662 -0.094389 -0.08631 -37.9947 -7.27701 -19.6998 0.0025 
796 1 -0.0433641 0.0118024 0.00262536 0 0 0 -0.230113 0.369828 -0.561224 0 0 -0.00160516 72.3267 -10.219 -36.5034 0.0025 
494 1 -0.0375454 0.00968205 0.00610032 0 0 0 0.451197 0.260967 -0.00691786 0 0 -0.00160516 29.4393 -22.7189 -36.8935 0.0025 
516 1 -0.024338 0.00885846 0.00521857 0 0 0 -0.637755 0.124136 -0.119766 0 0 -0.00160516 -31.8978 -9.47919 20.0239 0.0025 
821 1 -0.00968007 0.0136301 0.00278166 0 0 0 0.292713 0.770549 -0.30682 0 0 -0.00160516 -30.1236 37.9852 -48.9025 0.0025 
270 1 -0.00593037 0.00688698 0.00581884 0 0 0 0.282861 -0.189464 -0.119896 0.0122635 0.00790061 -0.00842951 30.3472 -34.9584 -6.29355 0.0025 
815 1 0.0311971 0.00797003 0.00829782 0 0 0 0.40674 -0.25089 -0.484002 -0.156037 -0.00561503 -0.0288218 78.2776 -46.3482 4.93963 0.0025 
808 1 -0.0285814 0.0122587 0.00365904 0 0 0 -0.11474 -0.222302 -0.204392 0 0 -0.00160516 -1.17983 37.1532 53.3931 0.0025 
911 1 -0.0211793 0.0131579 0.00431332 0 0 0 -0.492711 0.33553 -0.206101 -0.0182672 -0.00136382 -0.0286845 27.2847 -32.7969 29.8378 0.0025 
294 1 0.00264166 0.0118652 0.00677394 0 0 0 0.185148 0.0980018 0.428567 -0.00263255 -0.155482 -0.0460493 -27.7999 -14.8677 8.73404 0.0025 
946 1 0.00715967 0.0137853 0.00784055 0 0 0 0.127046 0.21351 0.474723 0.12876 0.0538251 -0.297561 9.86653 33.7143 27.3472 0.0025 
22 1 0.0119964 0.0146135 0.00595185 0 0 0 -0.147112 0.742095 -0.171627 0 0 -0.00160516 -126.379 11.1236 -39.7199 0.0025 
779 1 0.0248927 0.0141274 0.00271093 0 0 0 0.447416 0.669696 -0.155954 0 0 -0.00160516 -6.56636 6.85156 15.2188 0.0025 
229 1 0.0280616 0.0162318 0.00600287 0 0 0 0.209213 0.888723 -0.261407 0 0 -0.00160516 49.3852 4.76114 20.8997 0.0025 
197 1 0.0432683 0.0130588 0.0058472 0 0 0 0.82489 -0.210932 -0.364328 0 0 -0.00160516 -32.6335 -72.5981 -24.3745 0.0025 
1344 1 0.0463805 0.0088486 0.00463785 0 0 0 -0.24219 -0.627741 -0.321608 0 0 -0.00160516 -1.4062 -17.3254 23.2561 0.0025 
1402 1 0.00252221 0.0166078 0.00798201 0 0 0 0.025753 -0.108319 0.115946 0.129729 0.185245 0.0645164 -35.6133 29.3905 14.4653 0.0025 
708 1 -0.000255718 0.0203384 0.0045991 0 0 0 -0.159832 -0.328316 0.105969 0 0 -0.00160516 6.52988 45.409 93.554 0.0025 
1243 1 0.00442509 0.0186066 0.00374512 0 0 0 -0.315526 0.0650382 0.42986 0 0 -0.00160516 30.7545 -25.2564 -3.48726 0.0025 
969 1 0.0252354 0.0219042 0.00581882 0 0 0 -0.160071 0.307159 -0.442525 -0.0354254 -0.0460739 0.0136372 -34.5612 7.3336 4.05504 0.0025 
1676 1 0.040123 0.0219282 0.00531944 0 0 0 0.694994 0.773396 -0.616242 0 0 -0.00160516 -36.5196 -5.14423 36.1365 0.0025 
1564 1 -0.0291867 0.0242087 0.00574951 0 0 0 0.288179 0.152843 -0.000605957 0 0 -0.00160516 30.3733 32.7017 19.9607 0.0025 
1637 1 -0.0235155 0.0233307 0.00602867 0 0 0 0.501211 0.0985572 -0.148293 -0.00684704 0.0155404 0.0148695 -3.70068 -1.81005 28.0702 0.0025 
511 1 -0.0143484 0.0256675 0.00401119 0 0 0 -0.312237 0.499585 -0.364057 0 0 -0.00160516 6.78072 88.0143 9.01676 0.0025 
1414 1 -0.0077341 0.0230854 0.00514626 0 0 0 -0.11589 0.173537 0.00523923 8.05034e-05 -0.0063737 -0.0191084 -35.5207 76.4291 -8.83648 0.0025 
151 1 0.0109335 0.0227514 0.00336674 0 0 0 0.165094 0.344543 -0.736613 0 0 -0.00160516 78.1791 -50.323 33.7852 0.0025 
83 1 0.0331777 0.0204915 0.00425196 0 0 0 0.225958 0.266689 -0.0997881 0 0 -0.00160516 13.4507 32.2875 7.36579 0.0025 
1412 1 -0.00665993 0.0307657 0.00317067 0 0 0 -0.0514995 0.406294 -0.124576 0 0 -0.00160516 -6.79835 9.65809 -46.5698 0.0025 
577 1 -0.00280443 0.0264515 0.00437481 0 0 0 -0.418553 0.116316 0.473279 0 0 -0.00160516 13.0891 2.39841 -1.20153 0.0025 
747 1 0.017358 0.0297029 0.0070399 0 0 0 -0.0500435 0.535882 0.180629 -0.130161 0.0824926 -0.0309271 9.66712 64.1128 -23.4479 0.0025 
1753 1 0.0229451 0.0269183 0.00319989 0 0 0 0.44839 0.052531 0.91896 0 0 -0.00160516 -10.8937 79.4823 5.64543 0.0025 
728 1 0.0355733 0.0248206 0.00338654 0 0 0 0.322052 -0.0174283 -0.145919 0 0 -0.00160516 99.9453 -37.8597 48.7983 0.0025 
1351 1 -0.0334434 0.0339095 0.00628078 0 0 0 0.362364 0.126121 0.122529 0.197661 -0.219332 -0.00801274 28.4498 10.1528 -18.9309 0.0025 
280 1 -0.0204255 0.0300371 0.00368133 0 0 0 -0.0869367 -0.0160165 0.705339 0 0 -0.00160516 3.67154 -55.8813 -25.1464 0.0025 
1520 1 -0.00114243 0.031398 0.00370914 0 0 0 -0.325375 0.0584182 -0.391389 0 0 -0.00160516 53.1738 -8.49787 48.4056 0.0025 
218 1 0.0288529 0.0316384 0.00378126 0 0 0 0.308654 0.376772 -0.702717 0 0 -0.00160516 5.60109 9.46202 43.0242 0.0025 
1789 1 0.0349066 0.0305867 0.0044236 0 0 0 -0.372904 0.285396 -0.101711 0.00763928 0.0141957 -0.0456067 -44.312 47.5456 -15.8018 0.0025 
258 1 -0.0302242 0.0325836 0.00233653 0 0 0 -0.298318 -0.103936 0.53285 0.0211404 -0.00173189 0.422618 48.3289 -60.5119 -92.4718 0.0025 
59 1 -0.00987652 0.0355983 0.00350356 0 0 0 -0.0551758 0.753787 -0.126397 0 0 -0.00160516 -52.9768 -86.7345 -14.4235 0.0025 
839 1 0.0224408 0.0346162 0.00528123 0 0 0 0.112815 -0.276705 -0.01316 0 0 -0.00160516 -43.0942 -13.8358 -49.4992 0.0025 
111 1 0.0300048 0.034268 0.0082999 0 0 0 -0.0121382 -0.114107 0.15091 0 0 -0.00160516 -14.1592 -2.60071 -45.6813 0.0025 
1539 1 -0.024937 0.0389969 0.00710522 0 0 0 -0.221332 0.52124 -0.0591076 0 0 -0.00160516 -19.7886 -108.419 -52.8483 0.0025 
1293 1 -0.0217632 0.0419114 0.0027249 0 0 0 -0.136007 -0.293569 0.385432 -0.236489 0.231047 -0.0835223 2.45914 30.4635 1.11459 0.0025 
232 1 -0.0122077 0.04111 0.00740997 0 0 0 -0.242134 -0.0986472 -0.502184 -0.0270653 0.032831 -0.148353 19.3068 -49.0227 -29.4526 0.0025 
597 1 0.00278978 0.0367012 0.00447246 0 0 0 0.299311 -0.464272 -0.231177 0 0 -0.00160516 -30.359 -49.8183 -3.01512 0.0025 
1176 1 -0.0156793 0.0434577 0.00303804 0 0 0 0.126931 0.120819 -0.511646 0 0 -0.00160516 -17.2845 -47.7377 -37.9027 0.0025 
524 1 -0.00307113 -0.0426368 0.0113365 0 0 0 0.311207 0.548294 0.234592 0 0 -0.00160516 2.41783 47.0188 -54.0143 0.0025 
1749 1 -0.00890848 -0.0456363 0.00859957 0 0 0 0.32742 0.373477 0.128198 0 0 -0.00160516 11.7846 -8.38959 -49.0021 0.0025 
269 1 0.0100201 -0.0432131 0.00362241 0 0 0 0.35102 0.651284 -1.00884 0 0 -0.00160516 -20.6038 -29.7786 -23.7803 0.0025 
1476 1 0.0137439 -0.0405229 0.00964974 0 0 0 -0.199186 0.665783 0.00700363 0 0 -0.00160516 44.9581 -34.1194 -2.41002 0.0025 
896 1 -0.0187399 -0.0376416 0.00796823 0 0 0 -0.173035 -0.00217678 -0.0807581 0 0 -0.00160516 58.475 23.8825 -58.3232 0.0025 
1325 1 -0.00848675 -0.0358254 0.0104896 0 0 0 0.0284609 0.517603 -0.263709 0 0 -0.00160516 -14.8436 14.0657 -27.5161 0.0025 
1443 1 -0.00547627 -0.0394694 0.0055896 0 0 0 0.108499 -0.168961 0.109275 0 0 -0.00160516 10.3855 30.4451 -30.1161 0.0025 
956 1 0.0215276 -0.0410165 0.00932957 0 0 0 -0.0923617 -0.107207 0.122538 0 0 -0.00160516 44.7608 -25.7169 74.0416 0.0025 
1208 1 0.000426571 -0.0340936 0.00846572 0 0 0 -0.451223 -0.0944749 -0.108818 -0.0256946 0.0302233 -0.0304085 44.8951 50.1513 -3.95356 0.0025 
1317 1 0.0128283 -0.0341926 0.00757153 0 0 0 -0.0191904 -0.249332 -0.234707 0 0 -0.00160516 82.1656 136.045 -25.16 0.0025 
1033 1 0.0318459 -0.0354342 0.00945858 0 0 0 0.104741 -0.058623 -0.195111 -0.0965825 0.193665 -0.0109329 -32.2011 -56.3925 14.2124 0.0025 
664 1 -0.0135964 -0.0317101 0.0113825 0 0 0 0.150419 -0.258058 0.0947957 0 0 -0.00160516 0.234778 38.1249 29.0431 0.0025 
120 1 0.0289336 -0.0326057 0.00228645 0 0 0 0.213479 -0.292245 0.418527 -0.0248531 0.0203075 0.64029 36.0303 -16.2551 30.8979 0.0025 
1665 1 0.0361289 -0.0284137 0.00753086 0 0 0 -0.156027 0.41944 -0.121627 0 0 -0.00160516 28.8675 -9.12016 -112.76 0.0025 
650 1 -0.033472 -0.026614 0.00915324 0 0 0 -0.146237 -0.409673 0.354537 0 0 -0.00160516 -63.7831 -31.0067 -7.6204 0.0025 
1483 1 -0.0183121 -0.0314852 0.00949697 0 0 0 0.130918 -0.175072 -1.09919 0 0 -0.00160516 -14.6555 -130.487 -15.7247 0.0025 
786 1 0.0255083 -0.0253406 0.0118262 0 0 0 -0.58988 -0.0650786 -0.345908 0 0 -0.00160516 -31.837 47.9638 -9.23973 0.0025 
1383 1 0.0377974 -0.0236977 0.00859453 0 0 0 -0.483541 0.815059 -0.0568779 0 0 -0.00160516 -2.7106 -31.5514 -77.636 0.0025 
567 1 -0.0261674 -0.0266067 0.00775156 0 0 0 -0.0939463 -0.427908 -0.111061 0 0 -0.00160516 -3.06471 -23.2979 51.2399 0.0025 
1727 1 -0.019057 -0.0224029 0.00783305 0 0 0 0.0588883 -0.0257407 -0.312877 0 0 -0.00160516 50.3021 -14.3831 -10.9634 0.0025 
1442 1 -0.0118392 -0.0240709 0.00732632 0 0 0 0.301429 -0.0233531 0.290049 0 0 -0.00160516 75.5383 43.2025 33.6818 0.0025 
1702 1 -0.000335599 -0.0219677 0.00961706 0 0 0 -0.274005 -0.00612018 -0.104103 0 0 -0.00160516 -12.1641 -42.3965 18.8497 0.0025 
1001 1 0.00595918 -0.0209523 0.0119763 0 0 0 0.146147 -0.117802 0.442556 0 0 -0.00160516 -68.6476 -10.8893 5.68205 0.0025 
1530 1 0.0164507 -0.0243976 0.00725154 0 0 0 0.459717 -0.695039 -0.119667 -0.00312887 0.0103853 -0.0195045 5.16627 48.6587 34.7758 0.0025 
924 1 -0.0413054 -0.0200394 0.00908234 0 0 0 0.0838097 -0.35315 -0.125866 0 0 -0.00160516 17.2009 51.0295 24.7234 0.0025 
819 1 -0.031198 -0.0214228 0.00637108 0 0 0 -0.15835 -0.335249 0.255275 0 0 -0.00160516 22.669 -33.97 -22.8732 0.0025 
301 1 -0.0244546 -0.0220389 0.0093434 0 0 0 0.0263646 -0.0923772 -0.172965 0 0 -0.00160516 23.9923 109.79 42.9345 0.0025 
1447 1 -0.0148708 -0.0201687 0.00590178 0 0 0 -0.269731 0.163115 0.126929 0.00633059 -0.00283955 0.00484961 26.1209 -37.106 61.2938 0.0025 
359 1 -0.00515052 -0.021307 0.00763305 0 0 0 -0.0345756 -0.171087 0.217094 -0.0491654 -0.116816 -0.147908 -3.35384 44.2877 -40.1934 0.0025 
882 1 -0.0447342 -0.0117034 0.00373152 0 0 0 0.409632 0.277522 -0.866337 0.00297661 -0.00787301 -0.0127267 18.9982 31.1646 65.1396 0.0025 
328 1 -0.0299514 -0.0150838 0.00802789 0 0 0 0.118391 0.309367 0.0461079 0.190177 0.342368 -0.337176 -49.9877 -77.8943 7.23338 0.0025 
90 1 -0.0215987 -0.0175452 0.00716703 0 0 0 -0.225175 -0.037306 -0.477748 -0.00539629 0.00635144 -0.0238492 27.7025 -8.10452 1.27871 0.0025 
876 1 -0.0101534 -0.0166143 0.00693778 0 0 0 0.126879 -0.667469 -0.407588 0.073899 -0.0380809 -0.0343572 -21.77 17.2581 -16.1679 0.0025 
1154 1 0.000285265 -0.0172411 0.00307792 0 0 0 -0.0110591 0.026632 -0.523315 0 0 -0.00160516 8.86166 5.11523 -9.43624 0.0025 
1004 1 0.00632139 -0.0169005 0.00821655 0 0 0 -0.508532 -0.0237004 -0.359401 0.00515067 0.000218223 -0.005829 -17.3643 0.678128 15.1401 0.0025 