ITEM: TIMESTEP
800
ITEM: NUMBER OF ATOMS
1800
ITEM: BOX BOUNDS mm mm mm
-0.05 0.05
-0.05 0.05
0 0.15
ITEM: ATOMS id type x y z ix iy iz vx vy vz fx fy fz omegax omegay omegaz radius 
1 1 0.00346667 0.0342863 0.0371246 0 0 0 0 0 -0.578431 0 0 -0.00160516 0 0 0 0.0025 
2 1 -0.00465441 -0.0166358 0.124421 0 0 0 0 0 -0.578431 0 0 -0.00160516 0 0 0 0.0025 
3 1 0.0172435 0.0122224 0.140398 0 0 0 0 0 -0.578431 0 0 -0.00160516 0 0 0 0.0025 
4 1 0.0339069 -0.00723811 0.119199 0 0 0 0 0 -0.578431 0 0 -0.00160516 0 0 0 0.0025 
5 1 0.0084105 -0.0347295 0.138467 0 0 0 0 0 -0.578431 0 0 -0.00160516 0 0 0 0.0025 
6 1 0.00572099 0.0326099 0.0273606 0 0 0 0 0 -0.578431 0 0 -0.00160516 0 0 0 0.0025 
7 1 -0.00682064 0.0255543 0.0889515 0 0 0 0 0 -0.578431 0 0 -0.00160516 0 0 0 0.0025 
8 1 -0.00223902 -0.0112037 0.0353337 0 0 0 0 0 -0.578431 0 0 -0.00160516 0 0 0 0.0025 
9 1 0.0251504 -0.0275262 0.0145645 0 0 0 0 0 -0.578431 0 0 -0.00160516 0 0 0 0.0025 
10 1 0.0137846 -0.0340263 0.00619236 0 0 0 0.124251 0.303232 -0.251462 0 0 -0.00160516 26.3777 -4.86196 -5.18133 0.0025 
11 1 0.00376688 0.0400189 0.116166 0 0 0 0 0 -0.578431 0 0 -0.00160516 0 0 0 0.0025 
12 1 0.0283579 -0.0286575 0.125636 0 0 0 0 0 -0.578431 0 0 -0.00160516 0 0 0 0.0025 
13 1 0.0278521 0.0209881 0.13319 0 0 0 0 0 -0.578431 0 0 -0.00160516 0 0 0 0.0025 
14 1 -0.0265515 -0.0306627 0.0573937 0 0 0 0 0 -0.578431 0 0 -0.00160516 0 0 0 0.0025 
15 1 0.00288999 -0.0279711 0.00363963 0 0 0 0 0 -0.578431 0 0 -0.00160516 0 0 0 0.0025 
16 1 0.0058197 -0.0183172 0.126252 0 0 0 0 0 -0.578431 0 0 -0.00160516 0 0 0 0.0025 
17 1 0.0349609 -0.0216434 0.102536 0 0 0 0 0 -0.578431 0 0 -0.00160516 0 0 0 0.0025 
18 1 0.00306433 0.0222349 0.108324 0 0 0 0 0 -0.578431 0 0 -0.00160516 0 0 0 0.0025 
19 1 -0.0394654 0.0053667 0.100784 0 0 0 0 0 -0.578431 0 0 -0.00160516 0 0 0 0.0025 
20 1 -0.0212576 0.0231136 0.120626 0 0 0 0 0 -0.578431 0 0 -0.00160516 0 0 0 0.0025 
21 1 -0.000993586 0.0408 0.0976583 0 0 0 0 0 -0.578431 0 0 -0.00160516 0 0 0 0.0025 
22 1 0.0163224 0.0112856 0.00501959 0 0 0 0 0 0.437549 0 0 -0.00160516 0 0 0 0.0025 
23 1 -0.0369122 -0.0139166 0.0943702 0 0 0 0 0 -0.578431 0 0 -0.00160516 0 0 0 0.0025 
24 1 0.0111769 0.019791 0.0500097 0 0 0 0 0 -0.578431 0 0 -0.00160516 0 0 0 0.0025 
25 1 0.0254474 0.0137695 0.128643 0 0 0 0 0 -0.578431 0 0 -0.00160516 0 0 0 0.0025 
26 1 0.0287729 0.015375 0.0990379 0 0 0 0 0 -0.578431 0 0 -0.00160516 0 0 0 0.0025 
27 1 0.0106174 -0.0228661 0.0518413 0 0 0 0 0 -0.578431 0 0 -0.00160516 0 0 0 0.0025 
28 1 -0.00900902 -0.0346014 0.127647 0 0 0 0 0 -0.578431 0 0 -0.00160516 0 0 0 0.0025 
29 1 -0.0294093 -0.00157624 0.0177133 0 0 0 0 0 -0.578431 0 0 -0.00160516 0 0 0 0.0025 
30 1 -0.00206301 -0.0230665 0.139935 0 0 0 0 0 -0.578431 0 0 -0.00160516 0 0 0 0.0025 
31 1 0.0123786 -0.0336857 0.128612 0 0 0 0 0 -0.578431 0 0 -0.00160516 0 0 0 0.0025 
32 1 -0.0165201 -0.00332742 0.0142081 0 0 0 0 0 -0.578431 0 0 -0.00160516 0 0 0 0.0025 
33 1 0.0205758 0.0368628 0.0595059 0 0 0 0 0 -0.578431 0 0 -0.00160516 0 0 0 0.0025 
34 1 -0.0274769 -0.0150079 0.125281 0 0 0 0 0 -0.578431 0 0 -0.00160516 0 0 0 0.0025 
35 1 -0.0387213 0.00140005 0.138419 0 0 0 0 0 -0.578431 0 0 -0.00160516 0 0 0 0.0025 
36 1 0.00808078 0.00360348 0.0602749 0 0 0 0 0 -0.578431 0 0 -0.00160516 0 0 0 0.0025 
37 1 -0.0128594 -0.0387295 0.142583 0 0 0 0 0 -0.578431 0 0 -0.00160516 0 0 0 0.0025 
38 1 0.0217252 0.00541799 0.0375117 0 0 0 0 0 -0.578431 0 0 -0.00160516 0 0 0 0.0025 
39 1 0.0162863 0.033222 0.074841 0 0 0 0 0 -0.578431 0 0 -0.00160516 0 0 0 0.0025 
40 1 -0.00549197 0.0364172 0.0283292 0 0 0 0 0 -0.578431 0 0 -0.00160516 0 0 0 0.0025 
41 1 0.0401729 0.00549948 0.0702198 0 0 0 0 0 -0.578431 0 0 -0.00160516 0 0 0 0.0025 
42 1 0.0133876 0.00589465 0.0397868 0 0 0 0 0 -0.578431 0 0 -0.00160516 0 0 0 0.0025 
43 1 0.0180194 0.00206219 0.0860216 0 0 0 0 0 -0.578431 0 0 -0.00160516 0 0 0 0.0025 
44 1 -0.0278223 0.0303375 0.125879 0 0 0 0 0 -0.578431 0 0 -0.00160516 0 0 0 0.0025 
45 1 -0.0356263 -0.00158123 0.0277485 0 0 0 0 0 -0.578431 0 0 -0.00160516 0 0 0 0.0025 
46 1 0.0338262 -0.0125417 0.0577459 0 0 0 0 0 -0.578431 0 0 -0.00160516 0 0 0 0.0025 
47 1 -0.00815544 0.00152954 0.0156368 0 0 0 0 0 -0.578431 0 0 -0.00160516 0 0 0 0.0025 
48 1 0.0273596 0.0225226 0.066924 0 0 0 0 0 -0.578431 0 0 -0.00160516 0 0 0 0.0025 
49 1 -0.0119992 0.0193827 0.012207 0 0 0 0 0 -0.578431 0 0 -0.00160516 0 0 0 0.0025 
50 1 0.0300417 0.0108945 0.142431 0 0 0 0 0 -0.578431 0 0 -0.00160516 0 0 0 0.0025 
51 1 0.0162099 0.00918272 0.0440146 0 0 0 0 0 -0.578431 0 0 -0.00160516 0 0 0 0.0025 
52 1 -0.004494 -0.0206374 0.0832678 0 0 0 0 0 -0.578431 0 0 -0.00160516 0 0 0 0.0025 
53 1 0.0123862 -0.00549399 0.00472514 0 0 0 -0.0762278 0.0511851 0.436068 0 0 -0.00160516 2.57035 3.82792 2.4679e-16 0.0025 
54 1 -0.0241811 -0.0139897 0.00388714 0 0 0 0.138957 -0.0879879 0.449333 0 0 -0.00160516 -4.46065 -7.0446 1.98654e-15 0.0025 
55 1 -0.0362755 -0.0216873 0.0740606 0 0 0 0 0 -0.578431 0 0 -0.00160516 0 0 0 0.0025 
56 1 0.00727299 0.0170757 0.0384986 0 0 0 0 0 -0.578431 0 0 -0.00160516 0 0 0 0.0025 
57 1 -0.0277659 -0.0121023 0.0664956 0 0 0 0 0 -0.578431 0 0 -0.00160516 0 0 0 0.0025 
58 1 -0.0122133 0.0216865 0.0462815 0 0 0 0 0 -0.578431 0 0 -0.00160516 0 0 0 0.0025 
59 1 -0.00461364 0.0384947 0.0205171 0 0 0 0 0 -0.578431 0 0 -0.00160516 0 0 0 0.0025 
60 1 0.0118794 0.0364296 0.0757859 0 0 0 0 0 -0.578431 0 0 -0.00160516 0 0 0 0.0025 
61 1 -0.0164646 0.0291529 0.0909491 0 0 0 0 0 -0.578431 0 0 -0.00160516 0 0 0 0.0025 
62 1 -0.0179302 -0.032865 0.0161026 0 0 0 0 0 -0.578431 0 0 -0.00160516 0 0 0 0.0025 
63 1 0.00367667 -0.0362079 0.12706 0 0 0 0 0 -0.578431 0 0 -0.00160516 0 0 0 0.0025 
64 1 -0.0130874 -0.000530464 0.0614985 0 0 0 0 0 -0.578431 0 0 -0.00160516 0 0 0 0.0025 
65 1 -0.00408867 0.0416506 0.073057 0 0 0 0 0 -0.578431 0 0 -0.00160516 0 0 0 0.0025 
66 1 0.00492694 0.00705871 0.0968461 0 0 0 0 0 -0.578431 0 0 -0.00160516 0 0 0 0.0025 
67 1 -0.0410615 -0.000466019 0.0667296 0 0 0 0 0 -0.578431 0 0 -0.00160516 0 0 0 0.0025 
68 1 0.00753145 0.0411574 0.0583515 0 0 0 0 0 -0.578431 0 0 -0.00160516 0 0 0 0.0025 
69 1 0.0314819 0.00574732 0.112727 0 0 0 0 0 -0.578431 0 0 -0.00160516 0 0 0 0.0025 
70 1 -0.0089739 0.0156739 0.0735766 0 0 0 0 0 -0.578431 0 0 -0.00160516 0 0 0 0.0025 
71 1 0.0240579 -0.0294489 0.00818234 0 0 0 0 0 -0.578431 0 0 -0.00160516 0 0 0 0.0025 
72 1 0.00536475 -0.0146014 0.112291 0 0 0 0 0 -0.578431 0 0 -0.00160516 0 0 0 0.0025 
73 1 0.0114538 -0.0056853 0.115921 0 0 0 0 0 -0.578431 0 0 -0.00160516 0 0 0 0.0025 
74 1 -0.013628 0.00452133 0.120693 0 0 0 0 0 -0.578431 0 0 -0.00160516 0 0 0 0.0025 
75 1 0.0183227 -0.0298985 0.0144855 0 0 0 0 0 -0.578431 0 0 -0.00160516 0 0 0 0.0025 
76 1 0.00548388 -0.0338638 0.00530022 0 0 0 0.312353 -0.180326 -0.104688 -0.137808 0.112286 0.00386653 -18.9774 -29.8516 -4.45411 0.0025 
77 1 0.024966 0.0238352 0.0835726 0 0 0 0 0 -0.578431 0 0 -0.00160516 0 0 0 0.0025 
78 1 0.0261647 0.00935129 0.115836 0 0 0 0 0 -0.578431 0 0 -0.00160516 0 0 0 0.0025 
79 1 0.0257784 -0.00258703 0.0536844 0 0 0 0 0 -0.578431 0 0 -0.00160516 0 0 0 0.0025 
80 1 0.037098 -0.0137152 0.0344863 0 0 0 0 0 -0.578431 0 0 -0.00160516 0 0 0 0.0025 
81 1 0.0294668 -0.0214475 0.0401561 0 0 0 0 0 -0.578431 0 0 -0.00160516 0 0 0 0.0025 
82 1 0.0176156 -0.0354325 0.0960231 0 0 0 0 0 -0.578431 0 0 -0.00160516 0 0 0 0.0025 
83 1 0.0295754 0.0199274 0.00953549 0 0 0 -0.0130641 -0.0938765 -0.355888 -0.0191758 -0.139843 0.32778 11.5949 1.46505 1.29871 0.0025 
84 1 -0.0120349 -0.0404616 0.0751496 0 0 0 0 0 -0.578431 0 0 -0.00160516 0 0 0 0.0025 
85 1 -0.0278352 -0.00667069 0.113498 0 0 0 0 0 -0.578431 0 0 -0.00160516 0 0 0 0.0025 
86 1 -0.00291478 -0.0286248 0.141869 0 0 0 0 0 -0.578431 0 0 -0.00160516 0 0 0 0.0025 
87 1 0.019113 0.0226979 0.0270664 0 0 0 0 0 -0.578431 0 0 -0.00160516 0 0 0 0.0025 
88 1 -0.00427815 0.00707213 0.0229662 0 0 0 0 0 -0.578431 0 0 -0.00160516 0 0 0 0.0025 
89 1 -0.0197482 0.0120721 0.13087 0 0 0 0 0 -0.578431 0 0 -0.00160516 0 0 0 0.0025 
90 1 -0.0198142 -0.0178708 0.0306544 0 0 0 0 0 -0.578431 0 0 -0.00160516 0 0 0 0.0025 
91 1 -0.0250123 0.00770914 0.0165586 0 0 0 0 0 -0.578431 0 0 -0.00160516 0 0 0 0.0025 
92 1 -0.0362408 0.0212893 0.0208061 0 0 0 0 0 -0.578431 0 0 -0.00160516 0 0 0 0.0025 
93 1 0.0277428 -0.0173274 0.101425 0 0 0 0 0 -0.578431 0 0 -0.00160516 0 0 0 0.0025 
94 1 -0.036108 0.00234015 0.0720588 0 0 0 0 0 -0.578431 0 0 -0.00160516 0 0 0 0.0025 
95 1 0.0189073 -0.0155577 0.0231447 0 0 0 0 0 -0.578431 0 0 -0.00160516 0 0 0 0.0025 
96 1 -0.031391 -0.00895706 0.118594 0 0 0 0 0 -0.578431 0 0 -0.00160516 0 0 0 0.0025 
97 1 -0.0163345 -0.0336837 0.033457 0 0 0 0 0 -0.578431 0 0 -0.00160516 0 0 0 0.0025 
98 1 -0.000105318 0.0299224 0.0467376 0 0 0 0 0 -0.578431 0 0 -0.00160516 0 0 0 0.0025 
99 1 0.00435753 -0.0229632 0.034063 0 0 0 0 0 -0.578431 0 0 -0.00160516 0 0 0 0.0025 
100 1 -0.00931111 0.018246 0.122688 0 0 0 0 0 -0.578431 0 0 -0.00160516 0 0 0 0.0025 
101 1 -0.0137959 -0.0284488 0.122131 0 0 0 0 0 -0.578431 0 0 -0.00160516 0 0 0 0.0025 
102 1 0.00469729 0.0173124 0.0712303 0 0 0 0 0 -0.578431 0 0 -0.00160516 0 0 0 0.0025 
103 1 0.0334249 -0.00791347 0.101168 0 0 0 0 0 -0.578431 0 0 -0.00160516 0 0 0 0.0025 
104 1 -0.0144979 -0.0367808 0.130125 0 0 0 0 0 -0.578431 0 0 -0.00160516 0 0 0 0.0025 
105 1 0.0276296 -0.0284765 0.0954019 0 0 0 0 0 -0.578431 0 0 -0.00160516 0 0 0 0.0025 
106 1 0.0120451 0.0315066 0.0235896 0 0 0 0 0 -0.578431 0 0 -0.00160516 0 0 0 0.0025 
107 1 -0.0157163 0.00534672 0.141253 0 0 0 0 0 -0.578431 0 0 -0.00160516 0 0 0 0.0025 
108 1 0.0379069 -0.00952736 0.0435763 0 0 0 0 0 -0.578431 0 0 -0.00160516 0 0 0 0.0025 
109 1 -0.015251 -0.00352111 0.138448 0 0 0 0 0 -0.578431 0 0 -0.00160516 0 0 0 0.0025 
110 1 -0.00857262 0.00993494 0.11489 0 0 0 0 0 -0.578431 0 0 -0.00160516 0 0 0 0.0025 
111 1 0.0297428 0.0271742 0.0165019 0 0 0 0 0 -0.578431 0 0 -0.00160516 0 0 0 0.0025 
112 1 0.00632024 0.024273 0.0471685 0 0 0 0 0 -0.578431 0 0 -0.00160516 0 0 0 0.0025 
113 1 0.0292859 -0.00129347 0.138579 0 0 0 0 0 -0.578431 0 0 -0.00160516 0 0 0 0.0025 
114 1 -0.0111535 0.0137 0.131868 0 0 0 0 0 -0.578431 0 0 -0.00160516 0 0 0 0.0025 
115 1 -0.0288478 -0.0141646 0.0467825 0 0 0 0 0 -0.578431 0 0 -0.00160516 0 0 0 0.0025 
116 1 0.00693917 -0.0133734 0.0105542 0 0 0 0 0 -0.578431 0 0 -0.00160516 0 0 0 0.0025 
117 1 -0.0157988 -0.02983 0.13243 0 0 0 0 0 -0.578431 0 0 -0.00160516 0 0 0 0.0025 
118 1 -0.0142637 0.0302986 0.0858047 0 0 0 0 0 -0.578431 0 0 -0.00160516 0 0 0 0.0025 
119 1 0.0348924 -0.00321054 0.138212 0 0 0 0 0 -0.578431 0 0 -0.00160516 0 0 0 0.0025 
120 1 0.0267513 -0.0300856 0.0241083 0 0 0 0 0 -0.578431 0 0 -0.00160516 0 0 0 0.0025 
121 1 -0.00601289 0.0113545 0.128948 0 0 0 0 0 -0.578431 0 0 -0.00160516 0 0 0 0.0025 
122 1 0.0367568 0.00157569 0.00365233 0 0 0 0.311676 0.198119 0.299694 0 0 -0.00160516 10.8523 -17.0726 1.037e-14 0.0025 
123 1 -0.031994 0.026256 0.0954927 0 0 0 0 0 -0.578431 0 0 -0.00160516 0 0 0 0.0025 
124 1 -0.00991013 0.0304908 0.0686273 0 0 0 0 0 -0.578431 0 0 -0.00160516 0 0 0 0.0025 
125 1 -0.0254733 -0.000101999 0.0635417 0 0 0 0 0 -0.578431 0 0 -0.00160516 0 0 0 0.0025 
126 1 -0.00121073 -0.00881831 0.105256 0 0 0 0 0 -0.578431 0 0 -0.00160516 0 0 0 0.0025 
127 1 -0.0385601 0.0103617 0.0704837 0 0 0 0 0 -0.578431 0 0 -0.00160516 0 0 0 0.0025 
128 1 -0.0255199 0.0274063 0.0655612 0 0 0 0 0 -0.578431 0 0 -0.00160516 0 0 0 0.0025 
129 1 0.0149176 -0.0201293 0.0654002 0 0 0 0 0 -0.578431 0 0 -0.00160516 0 0 0 0.0025 
130 1 0.0118494 -0.0177621 0.0740117 0 0 0 0 0 -0.578431 0 0 -0.00160516 0 0 0 0.0025 
131 1 0.00145997 -0.0322029 0.112838 0 0 0 0 0 -0.578431 0 0 -0.00160516 0 0 0 0.0025 
132 1 0.0339555 0.000401158 0.057793 0 0 0 0 0 -0.578431 0 0 -0.00160516 0 0 0 0.0025 
133 1 -0.0213396 -0.00530891 0.00918058 0 0 0 0 0 -0.578431 0 0 -0.00160516 0 0 0 0.0025 
134 1 0.0215966 0.0038036 0.115802 0 0 0 0 0 -0.578431 0 0 -0.00160516 0 0 0 0.0025 
135 1 0.0387854 -0.00393722 0.0326066 0 0 0 0 0 -0.578431 0 0 -0.00160516 0 0 0 0.0025 
136 1 -0.0299437 0.0158971 0.0239123 0 0 0 0 0 -0.578431 0 0 -0.00160516 0 0 0 0.0025 
137 1 0.0302838 0.0297825 0.0283246 0 0 0 0 0 -0.578431 0 0 -0.00160516 0 0 0 0.0025 
138 1 0.0303735 0.00693696 0.136425 0 0 0 0 0 -0.578431 0 0 -0.00160516 0 0 0 0.0025 
139 1 0.0173788 0.035737 0.0247151 0 0 0 0 0 -0.578431 0 0 -0.00160516 0 0 0 0.0025 
140 1 -0.00868152 -0.0203789 0.123517 0 0 0 0 0 -0.578431 0 0 -0.00160516 0 0 0 0.0025 
141 1 -0.00893235 -0.00592804 0.0665395 0 0 0 0 0 -0.578431 0 0 -0.00160516 0 0 0 0.0025 
142 1 -0.0189399 0.006808 0.124123 0 0 0 0 0 -0.578431 0 0 -0.00160516 0 0 0 0.0025 
143 1 -0.0166357 0.0337048 0.0984126 0 0 0 0 0 -0.578431 0 0 -0.00160516 0 0 0 0.0025 
144 1 0.00555215 -0.0150359 0.0903263 0 0 0 0 0 -0.578431 0 0 -0.00160516 0 0 0 0.0025 
145 1 0.00104055 0.0285586 0.0959898 0 0 0 0 0 -0.578431 0 0 -0.00160516 0 0 0 0.0025 
146 1 0.0285694 0.0156042 0.0696358 0 0 0 0 0 -0.578431 0 0 -0.00160516 0 0 0 0.0025 
147 1 0.000676948 0.0374728 0.0469537 0 0 0 0 0 -0.578431 0 0 -0.00160516 0 0 0 0.0025 
148 1 -0.00694915 0.0256713 0.0652239 0 0 0 0 0 -0.578431 0 0 -0.00160516 0 0 0 0.0025 
149 1 0.00180757 -0.0401905 0.0176908 0 0 0 0 0 -0.578431 0 0 -0.00160516 0 0 0 0.0025 
150 1 -0.0114562 -0.034471 0.0300664 0 0 0 0 0 -0.578431 0 0 -0.00160516 0 0 0 0.0025 
151 1 0.00828033 0.0275168 0.0116595 0 0 0 0 0 -0.578431 0 0 -0.00160516 0 0 0 0.0025 
152 1 -0.0298573 0.0284295 0.0778839 0 0 0 0 0 -0.578431 0 0 -0.00160516 0 0 0 0.0025 
153 1 -0.0101011 -0.0286337 0.0442103 0 0 0 0 0 -0.578431 0 0 -0.00160516 0 0 0 0.0025 
154 1 -0.0117862 -0.00019589 0.133494 0 0 0 0 0 -0.578431 0 0 -0.00160516 0 0 0 0.0025 
155 1 -0.0141036 0.0206705 0.086074 0 0 0 0 0 -0.578431 0 0 -0.00160516 0 0 0 0.0025 
156 1 -0.03946 0.00613012 0.035499 0 0 0 0 0 -0.578431 0 0 -0.00160516 0 0 0 0.0025 
157 1 -0.0344866 -0.01557 0.127833 0 0 0 0 0 -0.578431 0 0 -0.00160516 0 0 0 0.0025 
158 1 -0.0298861 -0.00553691 0.0725169 0 0 0 0 0 -0.578431 0 0 -0.00160516 0 0 0 0.0025 
159 1 -0.0324336 0.0185902 0.0134067 0 0 0 0 0 -0.578431 0 0 -0.00160516 0 0 0 0.0025 
160 1 0.039096 -0.00385325 0.134761 0 0 0 0 0 -0.578431 0 0 -0.00160516 0 0 0 0.0025 
161 1 -0.0175226 -0.0224656 0.0231573 0 0 0 0 0 -0.578431 0 0 -0.00160516 0 0 0 0.0025 
162 1 -0.00441839 -0.00986143 0.135612 0 0 0 0 0 -0.578431 0 0 -0.00160516 0 0 0 0.0025 
163 1 0.00733189 0.0169919 0.0933877 0 0 0 0 0 -0.578431 0 0 -0.00160516 0 0 0 0.0025 
164 1 0.00287623 0.0108811 0.0678254 0 0 0 0 0 -0.578431 0 0 -0.00160516 0 0 0 0.0025 
165 1 -0.0120126 -0.026052 0.0618427 0 0 0 0 0 -0.578431 0 0 -0.00160516 0 0 0 0.0025 
166 1 -0.0233832 0.0280505 0.112672 0 0 0 0 0 -0.578431 0 0 -0.00160516 0 0 0 0.0025 
167 1 -0.0229973 0.035097 0.0953323 0 0 0 0 0 -0.578431 0 0 -0.00160516 0 0 0 0.0025 
168 1 -0.00689891 -0.0299036 0.0216691 0 0 0 0 0 -0.578431 0 0 -0.00160516 0 0 0 0.0025 
169 1 0.0189733 0.0137195 0.0778787 0 0 0 0 0 -0.578431 0 0 -0.00160516 0 0 0 0.0025 
170 1 -0.0350219 -0.0136873 0.0654213 0 0 0 0 0 -0.578431 0 0 -0.00160516 0 0 0 0.0025 
171 1 0.0255848 -0.0171027 0.0955458 0 0 0 0 0 -0.578431 0 0 -0.00160516 0 0 0 0.0025 
172 1 0.00959515 -0.0143043 0.0326356 0 0 0 0 0 -0.578431 0 0 -0.00160516 0 0 0 0.0025 
173 1 -0.00304641 0.00896351 0.0535588 0 0 0 0 0 -0.578431 0 0 -0.00160516 0 0 0 0.0025 
174 1 0.0307385 0.0216524 0.140188 0 0 0 0 0 -0.578431 0 0 -0.00160516 0 0 0 0.0025 
175 1 -0.0169398 -0.037295 0.125653 0 0 0 0 0 -0.578431 0 0 -0.00160516 0 0 0 0.0025 
176 1 0.0121935 0.00592045 0.0124984 0 0 0 0 0 -0.578431 0 0 -0.00160516 0 0 0 0.0025 
177 1 -0.0310208 0.00303092 0.0718807 0 0 0 0 0 -0.578431 0 0 -0.00160516 0 0 0 0.0025 
178 1 0.0222244 0.0259091 0.128443 0 0 0 0 0 -0.578431 0 0 -0.00160516 0 0 0 0.0025 
179 1 0.0119396 -0.0315628 0.0436225 0 0 0 0 0 -0.578431 0 0 -0.00160516 0 0 0 0.0025 
180 1 0.000730637 0.039808 0.0602868 0 0 0 0 0 -0.578431 0 0 -0.00160516 0 0 0 0.0025 
181 1 0.0173496 -0.0053879 0.046567 0 0 0 0 0 -0.578431 0 0 -0.00160516 0 0 0 0.0025 
182 1 -0.00616002 -0.0315267 0.00656635 0 0 0 0 0 -0.578431 0 0 -0.00160516 0 0 0 0.0025 
183 1 -0.000539626 0.0204976 0.0438438 0 0 0 0 0 -0.578431 0 0 -0.00160516 0 0 0 0.0025 
184 1 -0.0175255 0.0195462 0.092462 0 0 0 0 0 -0.578431 0 0 -0.00160516 0 0 0 0.0025 
185 1 -0.0350046 0.00775272 0.0372433 0 0 0 0 0 -0.578431 0 0 -0.00160516 0 0 0 0.0025 
186 1 -0.0406338 -0.0114778 0.00734497 0 0 0 0 0 -0.578431 0 0 -0.00160516 0 0 0 0.0025 
187 1 0.0211659 -0.035393 0.00342465 0 0 0 0 0 -0.578431 0 0 -0.00160516 0 0 0 0.0025 
188 1 -0.00211644 -0.0209916 0.060316 0 0 0 0 0 -0.578431 0 0 -0.00160516 0 0 0 0.0025 
189 1 0.00267805 0.0100614 0.0561291 0 0 0 0 0 -0.578431 0 0 -0.00160516 0 0 0 0.0025 
190 1 0.0298336 0.0240793 0.022539 0 0 0 0 0 -0.578431 0 0 -0.00160516 0 0 0 0.0025 
191 1 0.0271699 -0.0151741 0.119165 0 0 0 0 0 -0.578431 0 0 -0.00160516 0 0 0 0.0025 
192 1 0.0259435 -0.0171015 0.128979 0 0 0 0 0 -0.578431 0 0 -0.00160516 0 0 0 0.0025 
193 1 -0.00792142 0.0361096 0.00321305 0 0 0 0.201654 0.41414 0.188114 0 0 -0.00160516 24.6456 -12.0005 3.44376e-15 0.0025 
194 1 -0.019371 -0.0378243 0.00414274 0 0 0 0 0 0.478052 0 0 -0.00160516 0 0 0 0.0025 
195 1 0.031898 -0.0196257 0.0714063 0 0 0 0 0 -0.578431 0 0 -0.00160516 0 0 0 0.0025 
196 1 0.00874832 -0.0270502 0.00468757 0 0 0 0 0 0.453554 0 0 -0.00160516 0 0 0 0.0025 
197 1 0.0351824 0.0107564 0.0254243 0 0 0 0 0 -0.578431 0 0 -0.00160516 0 0 0 0.0025 
198 1 -0.00278626 -0.0286263 0.101426 0 0 0 0 0 -0.578431 0 0 -0.00160516 0 0 0 0.0025 
199 1 -0.0237991 -0.0316036 0.10251 0 0 0 0 0 -0.578431 0 0 -0.00160516 0 0 0 0.0025 
200 1 0.0109022 -0.00588508 0.0699119 0 0 0 0 0 -0.578431 0 0 -0.00160516 0 0 0 0.0025 
201 1 0.0120605 0.0216105 0.0174438 0 0 0 0 0 -0.578431 0 0 -0.00160516 0 0 0 0.0025 
202 1 -0.0202728 0.00548614 0.00688598 0 0 0 0.139687 0.436468 0.167938 0 0 -0.00160516 -40.3673 12.9191 6.86718e-15 0.0025 
203 1 0.00063024 -0.0275547 0.118568 0 0 0 0 0 -0.578431 0 0 -0.00160516 0 0 0 0.0025 
204 1 0.031678 -0.0270626 0.103399 0 0 0 0 0 -0.578431 0 0 -0.00160516 0 0 0 0.0025 
205 1 -0.0166654 -0.0157282 0.0470329 0 0 0 0 0 -0.578431 0 0 -0.00160516 0 0 0 0.0025 
206 1 0.0117368 -0.0187655 0.0185335 0 0 0 0 0 -0.578431 0 0 -0.00160516 0 0 0 0.0025 
207 1 0.0170241 0.0142242 0.113345 0 0 0 0 0 -0.578431 0 0 -0.00160516 0 0 0 0.0025 
208 1 0.0185117 -0.00385703 0.0288775 0 0 0 0 0 -0.578431 0 0 -0.00160516 0 0 0 0.0025 
209 1 -0.0102563 -0.0284443 0.0996575 0 0 0 0 0 -0.578431 0 0 -0.00160516 0 0 0 0.0025 
210 1 -0.0411574 0.00770192 0.114294 0 0 0 0 0 -0.578431 0 0 -0.00160516 0 0 0 0.0025 
211 1 0.0401023 -0.0107425 0.0545613 0 0 0 0 0 -0.578431 0 0 -0.00160516 0 0 0 0.0025 
212 1 -0.0297369 -0.018736 0.094957 0 0 0 0 0 -0.578431 0 0 -0.00160516 0 0 0 0.0025 
213 1 -0.0290303 -0.0214515 0.0778332 0 0 0 0 0 -0.578431 0 0 -0.00160516 0 0 0 0.0025 
214 1 0.0185486 -0.0133669 0.0415512 0 0 0 0 0 -0.578431 0 0 -0.00160516 0 0 0 0.0025 
215 1 -0.00665813 -0.0332716 0.0276389 0 0 0 0 0 -0.578431 0 0 -0.00160516 0 0 0 0.0025 
216 1 0.00886348 0.0184942 0.0237845 0 0 0 0 0 -0.578431 0 0 -0.00160516 0 0 0 0.0025 
217 1 0.0210019 -0.00158153 0.0195167 0 0 0 0 0 -0.578431 0 0 -0.00160516 0 0 0 0.0025 
218 1 0.0261652 0.0258046 0.00457918 0 0 0 -0.0985343 0.0882254 -0.555686 0 0 -0.00160516 -4.50844 -4.6116 -1.64539 0.0025 
219 1 -0.00458074 -0.0384153 0.09501 0 0 0 0 0 -0.578431 0 0 -0.00160516 0 0 0 0.0025 
220 1 -0.0171087 0.00335819 0.0890553 0 0 0 0 0 -0.578431 0 0 -0.00160516 0 0 0 0.0025 
221 1 -0.0354397 -0.0145261 0.119385 0 0 0 0 0 -0.578431 0 0 -0.00160516 0 0 0 0.0025 
222 1 -0.00337898 -0.000480401 0.113872 0 0 0 0 0 -0.578431 0 0 -0.00160516 0 0 0 0.0025 
223 1 0.0163521 -0.0298688 0.0950683 0 0 0 0 0 -0.578431 0 0 -0.00160516 0 0 0 0.0025 
224 1 -0.031729 -0.0196525 0.0708391 0 0 0 0 0 -0.578431 0 0 -0.00160516 0 0 0 0.0025 
225 1 0.0171399 -0.0195574 0.0361745 0 0 0 0 0 -0.578431 0 0 -0.00160516 0 0 0 0.0025 
226 1 0.0059242 0.0279706 0.123049 0 0 0 0 0 -0.578431 0 0 -0.00160516 0 0 0 0.0025 
227 1 -0.0345338 -1.50037e-05 0.100413 0 0 0 0 0 -0.578431 0 0 -0.00160516 0 0 0 0.0025 
228 1 0.01287 0.0365077 0.0116134 0 0 0 0 0 -0.578431 0 0 -0.00160516 0 0 0 0.0025 
229 1 0.0210779 0.0169623 0.0116696 0 0 0 0 0 -0.578431 0 0 -0.00160516 0 0 0 0.0025 
230 1 -0.0182247 -0.0323767 0.0449932 0 0 0 0 0 -0.578431 0 0 -0.00160516 0 0 0 0.0025 
231 1 -0.0141636 0.00270818 0.0314651 0 0 0 0 0 -0.578431 0 0 -0.00160516 0 0 0 0.0025 
232 1 -0.00995259 0.0367917 0.0163586 0 0 0 0 0 -0.578431 0 0 -0.00160516 0 0 0 0.0025 
233 1 0.0162272 0.0305277 0.0521964 0 0 0 0 0 -0.578431 0 0 -0.00160516 0 0 0 0.0025 
234 1 -0.0278776 0.00127911 0.0507239 0 0 0 0 0 -0.578431 0 0 -0.00160516 0 0 0 0.0025 
235 1 -0.0273332 -0.0295078 0.00850618 0 0 0 0 0 -0.578431 0 0 -0.00160516 0 0 0 0.0025 
236 1 0.0139503 0.0124547 0.0470715 0 0 0 0 0 -0.578431 0 0 -0.00160516 0 0 0 0.0025 
237 1 0.0415222 0.00370437 0.0361722 0 0 0 0 0 -0.578431 0 0 -0.00160516 0 0 0 0.0025 
238 1 0.0204918 -0.0250702 0.11152 0 0 0 0 0 -0.578431 0 0 -0.00160516 0 0 0 0.0025 
239 1 -0.0336826 -0.0042045 0.0457613 0 0 0 0 0 -0.578431 0 0 -0.00160516 0 0 0 0.0025 
240 1 -0.0307524 0.0147514 0.0315784 0 0 0 0 0 -0.578431 0 0 -0.00160516 0 0 0 0.0025 
241 1 -0.0246068 -0.0162606 0.135388 0 0 0 0 0 -0.578431 0 0 -0.00160516 0 0 0 0.0025 
242 1 0.00381369 0.0167657 0.0571137 0 0 0 0 0 -0.578431 0 0 -0.00160516 0 0 0 0.0025 
243 1 -0.0304833 0.0106476 0.0128055 0 0 0 0.170215 0.276316 0.353361 0 0 -0.00160516 4.76278 -6.13379 0.919229 0.0025 
244 1 0.00974675 0.0135588 0.0741103 0 0 0 0 0 -0.578431 0 0 -0.00160516 0 0 0 0.0025 
245 1 0.00641041 0.009782 0.0307244 0 0 0 0 0 -0.578431 0 0 -0.00160516 0 0 0 0.0025 
246 1 -0.0158328 0.0277759 0.0692443 0 0 0 0 0 -0.578431 0 0 -0.00160516 0 0 0 0.0025 
247 1 -0.0137924 0.0303269 0.12801 0 0 0 0 0 -0.578431 0 0 -0.00160516 0 0 0 0.0025 
248 1 0.0290947 0.0252932 0.124124 0 0 0 0 0 -0.578431 0 0 -0.00160516 0 0 0 0.0025 
249 1 -0.0105718 -0.0195016 0.0993454 0 0 0 0 0 -0.578431 0 0 -0.00160516 0 0 0 0.0025 
250 1 0.00167964 -0.0302701 0.105403 0 0 0 0 0 -0.578431 0 0 -0.00160516 0 0 0 0.0025 
251 1 0.0323039 -0.00176442 0.0043756 0 0 0 0.131761 -0.312079 -0.228457 0 0 -0.00160516 18.9812 4.21586 -7.06788 0.0025 
252 1 0.00785696 0.0218919 0.0990621 0 0 0 0 0 -0.578431 0 0 -0.00160516 0 0 0 0.0025 
253 1 -0.0149862 0.0371055 0.108638 0 0 0 0 0 -0.578431 0 0 -0.00160516 0 0 0 0.0025 
254 1 -0.0237444 -0.0122486 0.017979 0 0 0 0 0 -0.578431 0 0 -0.00160516 0 0 0 0.0025 
255 1 -0.0230654 -0.0294032 0.0888033 0 0 0 0 0 -0.578431 0 0 -0.00160516 0 0 0 0.0025 
256 1 0.0192259 0.0294757 0.134563 0 0 0 0 0 -0.578431 0 0 -0.00160516 0 0 0 0.0025 
257 1 -0.0219035 -0.0328177 0.142092 0 0 0 0 0 -0.578431 0 0 -0.00160516 0 0 0 0.0025 
258 1 -0.0139317 0.0291821 0.00479566 0 0 0 0.342738 0.310952 -0.196153 -0.0449991 -0.0350102 -0.00913243 -19.7652 21.9187 -0.429644 0.0025 
259 1 -0.0180025 0.0128103 0.108433 0 0 0 0 0 -0.578431 0 0 -0.00160516 0 0 0 0.0025 
260 1 -0.0187188 0.0333333 0.0432386 0 0 0 0 0 -0.578431 0 0 -0.00160516 0 0 0 0.0025 
261 1 0.000158866 -0.0299454 0.0497013 0 0 0 0 0 -0.578431 0 0 -0.00160516 0 0 0 0.0025 
262 1 0.0104532 0.00630493 0.132291 0 0 0 0 0 -0.578431 0 0 -0.00160516 0 0 0 0.0025 
263 1 0.00331821 -0.0309277 0.134177 0 0 0 0 0 -0.578431 0 0 -0.00160516 0 0 0 0.0025 
264 1 0.0286759 0.00619419 0.0302443 0 0 0 0 0 -0.578431 0 0 -0.00160516 0 0 0 0.0025 
265 1 0.00291556 0.0418184 0.12466 0 0 0 0 0 -0.578431 0 0 -0.00160516 0 0 0 0.0025 
266 1 0.0334849 0.0102714 0.0906685 0 0 0 0 0 -0.578431 0 0 -0.00160516 0 0 0 0.0025 
267 1 -0.035096 0.00115969 0.00559551 0 0 0 0 0 -0.578431 0 0 -0.00160516 0 0 0 0.0025 
268 1 0.0186932 -0.0131384 0.143049 0 0 0 0 0 -0.578431 0 0 -0.00160516 0 0 0 0.0025 
269 1 0.00748371 -0.0413681 0.0307054 0 0 0 0 0 -0.578431 0 0 -0.00160516 0 0 0 0.0025 
270 1 -0.0049312 0.0113291 0.0169601 0 0 0 0 0 -0.578431 0 0 -0.00160516 0 0 0 0.0025 
271 1 -0.0383092 -0.0032791 0.0177294 0 0 0 0 0 -0.578431 0 0 -0.00160516 0 0 0 0.0025 
272 1 -0.0203615 -0.0350411 0.110326 0 0 0 0 0 -0.578431 0 0 -0.00160516 0 0 0 0.0025 
273 1 -0.00511084 -0.0379083 0.0452742 0 0 0 0 0 -0.578431 0 0 -0.00160516 0 0 0 0.0025 
274 1 0.00683951 0.0216933 0.0862064 0 0 0 0 0 -0.578431 0 0 -0.00160516 0 0 0 0.0025 
275 1 0.0253076 0.00538707 0.071601 0 0 0 0 0 -0.578431 0 0 -0.00160516 0 0 0 0.0025 
276 1 -0.00821842 0.0229545 0.0138628 0 0 0 0 0 -0.578431 0 0 -0.00160516 0 0 0 0.0025 
277 1 -0.0319544 -0.0273245 0.116118 0 0 0 0 0 -0.578431 0 0 -0.00160516 0 0 0 0.0025 
278 1 -0.0062544 0.00230864 0.0896811 0 0 0 0 0 -0.578431 0 0 -0.00160516 0 0 0 0.0025 
279 1 -0.0247091 -0.0260977 0.130941 0 0 0 0 0 -0.578431 0 0 -0.00160516 0 0 0 0.0025 
280 1 -0.0203455 0.0305893 0.00888609 0 0 0 0.117737 0.0936573 -0.1254 0.111593 0.0887698 0.417324 -14.3433 18.031 -1.13126e-14 0.0025 
281 1 0.00062453 -0.0335227 0.043945 0 0 0 0 0 -0.578431 0 0 -0.00160516 0 0 0 0.0025 
282 1 0.0229706 -0.0337045 0.0504977 0 0 0 0 0 -0.578431 0 0 -0.00160516 0 0 0 0.0025 
283 1 0.0322746 0.00975522 0.0307536 0 0 0 0 0 -0.578431 0 0 -0.00160516 0 0 0 0.0025 
284 1 0.00827681 -0.0315914 0.142905 0 0 0 0 0 -0.578431 0 0 -0.00160516 0 0 0 0.0025 
285 1 0.0262831 0.0208271 0.12356 0 0 0 0 0 -0.578431 0 0 -0.00160516 0 0 0 0.0025 
286 1 -0.0262183 -0.0102749 0.102473 0 0 0 0 0 -0.578431 0 0 -0.00160516 0 0 0 0.0025 
287 1 0.00286653 0.0277891 0.139444 0 0 0 0 0 -0.578431 0 0 -0.00160516 0 0 0 0.0025 
288 1 0.024749 -0.022798 0.00974185 0 0 0 0 0 -0.578431 0 0 -0.00160516 0 0 0 0.0025 
289 1 -0.0181969 -0.0153794 0.0688321 0 0 0 0 0 -0.578431 0 0 -0.00160516 0 0 0 0.0025 
290 1 -0.030618 0.0236263 0.0836872 0 0 0 0 0 -0.578431 0 0 -0.00160516 0 0 0 0.0025 
291 1 0.0347263 -0.00536646 0.0471931 0 0 0 0 0 -0.578431 0 0 -0.00160516 0 0 0 0.0025 
292 1 0.00755566 -0.00195505 0.0564257 0 0 0 0 0 -0.578431 0 0 -0.00160516 0 0 0 0.0025 
293 1 -0.0250287 0.00187306 0.0382298 0 0 0 0 0 -0.578431 0 0 -0.00160516 0 0 0 0.0025 
294 1 -0.000231792 0.00993207 0.00280263 0 0 0 -0.155151 0.148536 -0.494179 0 0 -0.00160516 33.0026 34.4724 2.21274e-14 0.0025 
295 1 -0.00911562 -0.0261754 0.053295 0 0 0 0 0 -0.578431 0 0 -0.00160516 0 0 0 0.0025 
296 1 -0.019744 -0.007804 0.0175446 0 0 0 0 0 -0.578431 0 0 -0.00160516 0 0 0 0.0025 
297 1 0.00609237 -0.0256212 0.127002 0 0 0 0 0 -0.578431 0 0 -0.00160516 0 0 0 0.0025 
298 1 0.0415967 -0.00412922 0.0542615 0 0 0 0 0 -0.578431 0 0 -0.00160516 0 0 0 0.0025 
299 1 0.00681914 0.0393221 0.0989573 0 0 0 0 0 -0.578431 0 0 -0.00160516 0 0 0 0.0025 
300 1 -0.0104136 0.0286628 0.0148103 0 0 0 0 0 -0.578431 0 0 -0.00160516 0 0 0 0.0025 
301 1 -0.0268937 -0.0222674 0.0232685 0 0 0 0 0 -0.578431 0 0 -0.00160516 0 0 0 0.0025 
302 1 -0.0166218 -0.0025271 0.0823126 0 0 0 0 0 -0.578431 0 0 -0.00160516 0 0 0 0.0025 
303 1 0.0100463 0.00876307 0.138854 0 0 0 0 0 -0.578431 0 0 -0.00160516 0 0 0 0.0025 
304 1 0.0143096 0.0207125 0.0633975 0 0 0 0 0 -0.578431 0 0 -0.00160516 0 0 0 0.0025 
305 1 -0.0241548 0.0199779 0.0353718 0 0 0 0 0 -0.578431 0 0 -0.00160516 0 0 0 0.0025 
306 1 -0.040912 -0.00746096 0.0268954 0 0 0 0 0 -0.578431 0 0 -0.00160516 0 0 0 0.0025 
307 1 -0.0186684 -0.0190197 0.0977604 0 0 0 0 0 -0.578431 0 0 -0.00160516 0 0 0 0.0025 
308 1 -0.00178861 -0.00108624 0.093217 0 0 0 0 0 -0.578431 0 0 -0.00160516 0 0 0 0.0025 
309 1 -0.00767443 -0.0140873 0.113311 0 0 0 0 0 -0.578431 0 0 -0.00160516 0 0 0 0.0025 
310 1 0.00875395 -0.0223085 0.0730305 0 0 0 0 0 -0.578431 0 0 -0.00160516 0 0 0 0.0025 
311 1 0.00762998 -0.0130041 0.00401456 0 0 0 0 0 -0.578431 0 0 -0.00160516 0 0 0 0.0025 
312 1 0.0198235 -0.00643598 0.0881709 0 0 0 0 0 -0.578431 0 0 -0.00160516 0 0 0 0.0025 
313 1 0.0220349 -0.00877992 0.130637 0 0 0 0 0 -0.578431 0 0 -0.00160516 0 0 0 0.0025 
314 1 -0.0229829 0.00574749 0.117592 0 0 0 0 0 -0.578431 0 0 -0.00160516 0 0 0 0.0025 
315 1 0.00492673 0.00356924 0.00333668 0 0 0 0 0 0.510698 0 0 -0.00160516 0 0 0 0.0025 
316 1 0.0247496 -0.0142138 0.0173955 0 0 0 0 0 -0.578431 0 0 -0.00160516 0 0 0 0.0025 
317 1 0.0103864 -0.0364273 0.132333 0 0 0 0 0 -0.578431 0 0 -0.00160516 0 0 0 0.0025 
318 1 -0.00694855 0.0356966 0.0918246 0 0 0 0 0 -0.578431 0 0 -0.00160516 0 0 0 0.0025 
319 1 -0.0246661 -0.0227916 0.0397937 0 0 0 0 0 -0.578431 0 0 -0.00160516 0 0 0 0.0025 
320 1 0.00103097 -0.0424266 0.0820371 0 0 0 0 0 -0.578431 0 0 -0.00160516 0 0 0 0.0025 
321 1 0.0263039 0.00893614 0.0368321 0 0 0 0 0 -0.578431 0 0 -0.00160516 0 0 0 0.0025 
322 1 0.0153516 -0.0156436 0.0168485 0 0 0 0 0 -0.578431 0 0 -0.00160516 0 0 0 0.0025 
323 1 0.0401826 -0.0103816 0.115915 0 0 0 0 0 -0.578431 0 0 -0.00160516 0 0 0 0.0025 
324 1 -0.0251042 -0.00673201 0.0458055 0 0 0 0 0 -0.578431 0 0 -0.00160516 0 0 0 0.0025 
325 1 -0.0350968 -0.0126552 0.0279997 0 0 0 0 0 -0.578431 0 0 -0.00160516 0 0 0 0.0025 
326 1 -0.0214937 0.0151164 0.0569951 0 0 0 0 0 -0.578431 0 0 -0.00160516 0 0 0 0.0025 
327 1 0.0331425 0.0165339 0.0120799 0 0 0 0 0 -0.578431 0 0 -0.00160516 0 0 0 0.0025 
328 1 -0.0207138 -0.0164681 0.0212848 0 0 0 0 0 -0.578431 0 0 -0.00160516 0 0 0 0.0025 
329 1 0.0134751 0.03619 0.11175 0 0 0 0 0 -0.578431 0 0 -0.00160516 0 0 0 0.0025 
330 1 0.0381329 0.00905818 0.00527045 0 0 0 0 0 -0.578431 0 0 -0.00160516 0 0 0 0.0025 
331 1 -0.00689663 0.00831078 0.0696122 0 0 0 0 0 -0.578431 0 0 -0.00160516 0 0 0 0.0025 
332 1 0.00597232 0.0268242 0.111018 0 0 0 0 0 -0.578431 0 0 -0.00160516 0 0 0 0.0025 
333 1 0.00584581 -0.0294743 0.0455515 0 0 0 0 0 -0.578431 0 0 -0.00160516 0 0 0 0.0025 
334 1 0.0134929 -0.0255052 0.078664 0 0 0 0 0 -0.578431 0 0 -0.00160516 0 0 0 0.0025 
335 1 0.0270062 0.0239505 0.0136874 0 0 0 0 0 -0.578431 0 0 -0.00160516 0 0 0 0.0025 
336 1 -0.0104365 0.00322347 0.0655835 0 0 0 0 0 -0.578431 0 0 -0.00160516 0 0 0 0.0025 
337 1 -0.0298415 0.024529 0.0191859 0 0 0 0 0 -0.578431 0 0 -0.00160516 0 0 0 0.0025 