ITEM: TIMESTEP
3200
ITEM: NUMBER OF ATOMS
1800
ITEM: BOX BOUNDS mm mm mm
-0.05 0.05
-0.05 0.05
0 0.15
ITEM: ATOMS id type x y z ix iy iz vx vy vz fx fy fz omegax omegay omegaz radius 
1168 1 -0.00244505 -0.0446188 0.00249668 0 0 0 0.0773123 -0.148705 -0.446468 -0.000159325 0.000213805 0.00372765 33.5981 11.6277 0.074689 0.0025 
817 1 0.0148815 -0.0448803 0.00246425 0 0 0 0.0741182 -0.246658 0.3799 -0.000681166 0.00179574 0.0368066 54.5806 12.8604 1.67094 0.0025 
194 1 -0.0237765 -0.0395261 0.00336073 0 0 0 0.433151 0.210069 0.49234 0.248358 -0.272464 -0.0314185 -122.695 47.9881 30.3094 0.0025 
1708 1 -0.0109296 -0.0412382 0.00291747 0 0 0 0.218754 -0.0232858 0.752676 0.0498662 0.110089 -0.105147 66.8426 87.0576 5.16682 0.0025 
149 1 0.00141608 -0.0399816 0.0029413 0 0 0 -0.58234 -0.0624779 0.189974 0.0172631 -0.404172 0.0436031 18.0434 42.0392 38.45 0.0025 
182 1 -0.00682808 -0.0330948 0.00305093 0 0 0 0.049395 -0.190003 0.0859518 0 0 -0.00160516 71.7941 -37.3233 -46.7749 0.0025 
76 1 0.00102975 -0.0352084 0.00256344 0 0 0 -0.725326 -0.0583116 0.297376 -0.0172631 0.404172 -0.0468134 -15.1016 -6.26319 -27.7061 0.0025 
10 1 0.0154413 -0.0325355 0.00300158 0 0 0 -0.0700155 0.11971 0.566607 0 0 -0.00160516 -39.048 -32.427 -7.22027 0.0025 
1585 1 -0.0369369 -0.027776 0.00269716 0 0 0 -0.21747 -0.19464 -0.295458 0 0 -0.00160516 -62.8893 3.74056 -32.6817 0.0025 
1418 1 -0.0193459 -0.0291108 0.00357809 0 0 0 0.329994 -0.32925 0.718214 0.0447091 -0.027189 -0.254874 42.0745 17.3589 25.972 0.0025 
196 1 0.00690295 -0.0273995 0.00272896 0 0 0 0.0514267 0.548648 -0.0875001 0 0 -0.00160516 116.36 -8.90889 -14.1916 0.0025 
886 1 0.0161374 -0.0259657 0.00335383 0 0 0 0.394806 -0.211459 -0.281042 0 0 -0.00160516 -54.1945 6.90485 7.4073 0.0025 
1740 1 0.022859 -0.0254021 0.00274613 0 0 0 0.316141 0.257835 0.187129 0 0 -0.00160516 20.4757 -24.4777 9.53048 0.0025 
603 1 -0.000417682 -0.0238072 0.00261535 0 0 0 -0.707201 -0.70824 -0.185561 0 0 -0.00160516 33.3176 -61.0858 12.3741 0.0025 
1036 1 -0.039577 -0.0195087 0.00320134 0 0 0 -0.377083 0.12501 0.271185 0 0 -0.00160516 10.6376 -45.5927 -12.1878 0.0025 
1679 1 -0.0325274 -0.019192 0.00255715 0 0 0 -0.320258 0.12537 -0.155097 -0.00133882 0.00281037 -0.00829889 29.0807 -24.2282 3.02751 0.0025 
1532 1 -0.0185662 -0.0199082 0.00381418 0 0 0 0.354567 -0.197253 0.557865 0 0 -0.00160516 83.5277 103.226 10.7009 0.0025 
1303 1 0.00568765 -0.0200147 0.00358713 0 0 0 0.314907 0.0953541 0.299794 0 0 -0.00160516 38.6471 -87.222 11.2989 0.0025 
364 1 0.0160887 -0.0204855 0.00275497 0 0 0 0.246651 -0.311242 0.0109574 -0.0494903 0.0164064 -0.0428717 62.558 -20.3761 64.8457 0.0025 
1751 1 -0.00685824 -0.0148313 0.00235969 0 0 0 0.064063 0.0264644 0.455328 -0.0116818 0.0090931 0.328035 -23.2297 -1.97147 -28.0838 0.0025 
420 1 -0.0276605 -0.0127023 0.00368488 0 0 0 0.0153615 -0.488519 -0.103855 0 0 -0.00160516 8.03141 25.5441 -2.19824 0.0025 
704 1 -0.0130936 -0.0126519 0.00254968 0 0 0 -0.243804 -0.0178444 0.425729 0 0 -0.00160516 21.2964 -46.4317 -2.53469 0.0025 
1490 1 -0.00176875 -0.0120305 0.0024105 0 0 0 0.296145 0.108483 -0.0718226 -0.0773491 0.0492631 0.163591 -12.6074 22.0866 -28.2989 0.0025 
311 1 0.00873165 -0.010865 0.0031097 0 0 0 0.318523 -0.191552 -0.0256901 -0.0188804 -0.148029 -0.209081 -50.7905 -28.434 -17.4997 0.0025 
1392 1 0.0306919 -0.0113725 0.00346914 0 0 0 0.068229 0.167834 0.0362973 0 0 -0.00160516 49.742 -9.92781 7.40021 0.0025 
785 1 0.00376897 -0.0103283 0.00251151 0 0 0 -0.141955 0.0161034 0.638134 0 0 -0.00160516 -5.11345 -30.6277 -24.9078 0.0025 
1626 1 0.0200866 -0.00815311 0.00274516 0 0 0 0.100876 0.327426 -0.383809 -0.00707547 0.0179617 -0.0634459 18.0515 21.1609 57.4084 0.0025 
1226 1 0.0443738 -0.0101417 0.00256256 0 0 0 -0.517097 0.168182 0.349306 0 0 -0.00160516 16.4379 -92.23 -8.51297 0.0025 
517 1 -0.0266692 -0.00375141 0.00288895 0 0 0 -0.0364974 -0.0177525 -0.269419 0 0 -0.00160516 -27.2264 10.7085 26.2049 0.0025 
1145 1 -0.00111518 -0.0058921 0.00275928 0 0 0 0.149229 -0.648601 -0.0212844 0 0 -0.00160516 -10.2896 44.866 22.1025 0.0025 
1711 1 0.0272644 -0.00589803 0.00277762 0 0 0 -0.174706 -0.0401207 -0.168817 0 0 -0.00160516 -2.58313 9.96799 10.5102 0.0025 
251 1 0.0316553 -0.0014937 0.00289524 0 0 0 -0.0277728 0.0219303 0.249664 0 0 -0.00160516 -8.50993 -16.4005 -12.9812 0.0025 
1016 1 -0.0218249 0.00319499 0.0032811 0 0 0 -0.40332 0.448017 0.237259 0 0 -0.00160516 -51.1889 21.6749 10.3046 0.0025 
864 1 -0.00712579 0.00155259 0.00294699 0 0 0 -0.481853 0.1266 -0.222735 0 0 -0.00160516 -7.06286 8.03818 17.3686 0.0025 
1643 1 0.0163091 0.000231741 0.00297285 0 0 0 -0.128685 0.0872927 -0.298742 0 0 -0.00160516 23.576 46.7473 25.1176 0.0025 
1557 1 0.0251419 0.0022412 0.00264276 0 0 0 0.30732 -0.193483 0.344491 0 0 -0.00160516 -21.6185 20.4861 8.05063 0.0025 
1497 1 0.0356904 0.001511 0.00266693 0 0 0 0.268353 -0.214353 -0.496156 0 0 -0.00160516 -28.0875 -30.928 -2.95208 0.0025 
436 1 -0.0392785 0.00480413 0.00244407 0 0 0 -0.478627 0.109879 -0.319383 0.00423905 -0.00195567 0.0917634 28.4851 -35.4897 46.4658 0.0025 
202 1 -0.0162755 0.00677544 0.00272797 0 0 0 0.201429 0.332807 0.126838 0 0 -0.00160516 -66.0185 21.6731 -15.6286 0.0025 
949 1 -0.00144263 0.00536836 0.00281738 0 0 0 0.305444 -0.0186008 -0.346207 0 0 -0.00160516 5.92227 24.0176 -28.8377 0.0025 
315 1 0.00663846 0.00610969 0.00339104 0 0 0 0.0077133 0.243145 0.455043 0 0 -0.00160516 -84.7498 -15.7055 11.5712 0.0025 
1494 1 0.0180382 0.00542017 0.00278662 0 0 0 -0.34643 -0.178139 0.370178 0 0 -0.00160516 -42.1649 -40.4183 -1.18802 0.0025 
473 1 0.030438 0.00503536 0.0025921 0 0 0 -0.153886 0.173505 0.206611 0.00275571 -0.00435688 -0.00421464 -50.3806 -20.5074 -16.7088 0.0025 
516 1 -0.0233423 0.00796651 0.00258383 0 0 0 0.188918 0.294979 0.632768 0 0 -0.00160516 -65.869 26.1217 -20.6126 0.0025 
796 1 -0.0426689 0.0116941 0.00261359 0 0 0 -0.0857424 -0.28808 -0.530594 0 0 -0.00160516 56.9807 33.8821 -33.5669 0.0025 
447 1 -0.030995 0.0128042 0.00295198 0 0 0 -0.0352546 -0.0491114 -0.0690589 0 0 -0.00160516 -33.7912 28.3532 -13.8048 0.0025 
565 1 -0.0168536 0.0133908 0.00323441 0 0 0 0.00487839 0.160616 0.242438 0 0 -0.00160516 -32.6033 7.53626 -37.8983 0.0025 
685 1 -0.0058378 0.0119754 0.00318664 0 0 0 -0.0537273 0.108059 0.283186 0.00227186 0.0388049 -0.0407716 53.2514 1.24188 52.2225 0.0025 
430 1 0.0133293 0.0135439 0.00240194 0 0 0 0.623662 -0.291545 -0.1239 -0.00932768 0.00433163 0.204083 -3.0329 -8.2224 13.2026 0.0025 
1600 1 -0.027205 0.0161542 0.0027328 0 0 0 -0.366734 -0.117006 0.0074156 0 0 -0.00160516 -45.1627 68.1679 -0.00841325 0.0025 
49 1 -0.00994383 0.0153258 0.00311961 0 0 0 0.214882 0.139417 0.223543 0 0 -0.00160516 48.3822 11.0854 -23.0099 0.0025 
1245 1 -0.000832586 0.0176558 0.00258448 0 0 0 -0.182645 -0.0849272 0.0505785 0 0 -0.00160516 8.7283 -38.5694 -0.363282 0.0025 
229 1 0.0239085 0.0144991 0.00304494 0 0 0 0.366686 -0.157871 0.583532 0 0 -0.00160516 54.094 49.2888 20.0123 0.0025 
679 1 -0.0193216 0.0200322 0.00246687 0 0 0 -0.254036 -0.0646197 0.172072 0.00175842 0.000588597 0.0354812 -25.7125 52.2554 -13.6407 0.0025 
756 1 -0.0364317 0.0244006 0.00405312 0 0 0 -0.188725 0.293706 0.632361 0 0 -0.00160516 -20.5499 -46.519 28.2739 0.0025 
1306 1 -0.0237456 0.0235699 0.00294858 0 0 0 -0.0143842 0.86799 -0.0410248 0 0 -0.00160516 -6.6194 -46.548 -27.353 0.0025 
1163 1 -0.0111887 0.02419 0.00272732 0 0 0 -0.259584 -0.108525 -0.140031 -0.115317 -0.0494373 0.00500363 -6.44881 -5.39948 -11.9678 0.0025 
387 1 0.0023928 0.0215031 0.00305354 0 0 0 -0.0344949 0.0951136 0.469986 0 0 -0.00160516 32.3906 -62.9544 -23.5118 0.0025 
1753 1 0.0202377 0.0237428 0.00283517 0 0 0 0.0377397 0.18506 0.316891 0 0 -0.00160516 28.1127 4.99082 18.8879 0.0025 
1685 1 -0.0280379 0.0270697 0.00253726 0 0 0 -0.668347 -0.0515237 -0.0778242 0 0 -0.00160516 -25.1536 17.7641 6.53795 0.0025 
1412 1 -0.00675586 0.0262933 0.00262829 0 0 0 0.0761804 0.322122 0.267996 0.115317 0.0494373 -0.00821394 68.6769 -8.47292 -42.6573 0.0025 
1058 1 0.0093225 0.0284538 0.00284716 0 0 0 0.250885 0.0686827 -0.163982 0.0485867 -0.00613443 -0.122288 -20.345 -11.5083 -4.78682 0.0025 
1400 1 0.026688 0.0269022 0.00261105 0 0 0 -0.224758 0.328834 -0.0408796 -0.320871 -0.223587 -0.0396185 20.1608 10.2097 -24.6686 0.0025 
1789 1 0.0388078 0.0260556 0.00379595 0 0 0 -0.569737 -0.210355 0.31572 0 0 -0.00160516 -81.8061 71.9997 -23.889 0.0025 
258 1 -0.0215394 0.0302726 0.00254614 0 0 0 -0.395131 -0.049455 0.412373 0 0 -0.00160516 16.0663 -67.7496 -62.658 0.0025 
361 1 0.021447 0.0297802 0.00286495 0 0 0 0.563757 -0.153558 -0.155182 0 0 -0.00160516 -16.9588 39.7349 8.48293 0.0025 
218 1 0.0307331 0.0294805 0.00293933 0 0 0 0.1071 -0.0450838 -0.427719 0.320871 0.223587 0.0364082 -33.826 20.4627 4.87946 0.0025 
1457 1 0.0231601 0.0372063 0.00250945 0 0 0 0.624491 0.279086 0.456248 0 0 -0.00160516 -27.94 -6.5708 -15.1071 0.0025 
597 1 0.00177659 0.0401736 0.00254168 0 0 0 -0.535319 0.00387938 -0.563343 0 0 -0.00160516 1.6196 -64.0552 -17.0976 0.0025 
193 1 -0.00881905 0.0467773 0.00282965 0 0 0 0.0026753 -0.495616 -0.075534 0.0361064 -0.199897 -0.00190851 46.465 -7.53613 -54.3248 0.0025 
1181 1 0.00653322 0.0456958 0.00302478 0 0 0 0.340941 0.0958399 0.491479 0 0 -0.00160516 34.826 36.4485 20.0927 0.0025 
1749 1 -0.0125367 -0.0447612 0.00591329 0 0 0 0.148439 -0.357387 0.106604 0.0856834 -0.337507 0.0626036 -84.1475 8.63123 -17.8172 0.0025 
62 1 -0.015187 -0.0407435 0.00652411 0 0 0 -0.10608 -0.519854 -0.138371 -0.13555 0.227419 0.037728 43.774 13.3349 -0.775211 0.0025 
823 1 0.00519945 -0.0419523 0.00605521 0 0 0 0.316218 0.199566 0.489119 0 0 -0.00160516 -15.0779 61.9632 59.5322 0.0025 
187 1 0.0198484 -0.0426951 0.0068893 0 0 0 0.0466924 -0.536334 0.0431359 0 0 -0.00160516 -21.9876 -5.76583 -3.52822 0.0025 
1617 1 0.0074893 -0.0373632 0.00488649 0 0 0 0 0 0.702401 0 0 -0.00160516 0 0 0 0.0025 
1768 1 -0.0330724 -0.0335618 0.00537402 0 0 0 -0.281094 -0.318545 0.0461046 0 0 -0.00160516 -11.4648 -28.0948 -14.4903 0.0025 
235 1 -0.027151 -0.0360993 0.00359573 0 0 0 -0.453304 -0.365558 -0.428126 -0.248358 0.272464 0.0282082 -52.9751 19.1424 37.7053 0.0025 
566 1 -0.0214172 -0.0340716 0.00699599 0 0 0 0.00540556 -0.142269 -0.014136 0 0 -0.00160516 0.788013 21.0484 -3.351 0.0025 
1278 1 -0.0125609 -0.0340144 0.00551884 0 0 0 -0.114635 -0.312332 -0.0483215 0 0 -0.00160516 96.9741 -14.611 -30.3557 0.0025 
1443 1 -0.00325302 -0.0351108 0.00677456 0 0 0 -0.122062 -0.446801 -0.205931 0 0 -0.00160516 10.9878 -83.5814 30.5016 0.0025 
71 1 0.0301613 -0.0336708 0.00444224 0 0 0 0.10897 -0.604173 0.0549195 0 0 -0.00160516 13.0561 71.7556 -50.5394 0.0025 
15 1 0.000215763 -0.0304571 0.00684157 0 0 0 0.0800309 0.0837051 -0.0399025 -0.00637633 -0.0589579 -0.015054 8.37128 6.60656 46.1926 0.0025 
1030 1 0.00492937 -0.0329419 0.00510164 0 0 0 0.123853 -0.302788 -0.317878 0 0 -0.00160516 11.5396 108.157 -13.4321 0.0025 
1131 1 0.00982888 -0.0308453 0.00570148 0 0 0 -0.0220498 -0.376836 -0.165478 0 0 -0.00160516 -0.858013 -13.7558 -36.2138 0.0025 
75 1 0.0200023 -0.0317622 0.00539501 0 0 0 -0.0594638 -0.14075 -0.765209 0 0 -0.00160516 0.838532 12.2428 5.78226 0.0025 
1665 1 0.0338427 -0.0296733 0.00631731 0 0 0 0.563144 -0.341405 0.216758 0 0 -0.00160516 -21.1138 -43.5599 19.6067 0.0025 
9 1 0.028207 -0.0276489 0.00358423 0 0 0 0.253381 0.00922533 -0.747927 0 0 -0.00160516 -23.0233 -67.5254 -25.1691 0.0025 
567 1 -0.0264816 -0.0244819 0.00459247 0 0 0 -0.239887 -0.306428 0.436043 0 0 -0.00160516 8.16006 -22.0808 64.1344 0.0025 
444 1 -0.0149698 -0.0244014 0.00552237 0 0 0 -0.0352867 0.0529487 -0.018063 0 0 -0.00160516 25.3429 -40.7538 -4.89361 0.0025 
1568 1 -0.00462422 -0.0222847 0.00567385 0 0 0 0.148194 0.223587 -0.0287362 0 0 -0.00160516 -44.4162 -5.68281 -66.5994 0.0025 
740 1 0.0108385 -0.0242032 0.00358445 0 0 0 0.299781 -0.13944 -0.256397 0 0 -0.00160516 -8.98076 -15.6503 -4.18538 0.0025 
1256 1 0.0198464 -0.0214711 0.00581477 0 0 0 -0.135229 0.203555 -0.288078 0.0494903 -0.0164064 0.0396614 23.141 -46.1225 -15.7815 0.0025 
342 1 0.0289246 -0.0210427 0.00620075 0 0 0 0.570236 -0.119521 0.127052 0 0 -0.00160516 16.5486 -1.85993 -19.6741 0.0025 
693 1 -0.0338816 -0.0145337 0.00425372 0 0 0 -0.278131 -0.240698 0.148301 -0.134248 -0.16258 -0.204264 19.6117 -47.5139 23.1101 0.0025 
1002 1 -0.0272413 -0.0185809 0.00468446 0 0 0 -0.317337 -0.734805 -0.257757 0 0 -0.00160516 -95.0811 -43.4846 11.5421 0.0025 
54 1 -0.0217345 -0.0143161 0.00443299 0 0 0 0.018204 0.214422 -0.0654836 0 0 -0.00160516 33.0665 -28.7863 43.4191 0.0025 
1391 1 -0.00195479 -0.0175977 0.00555069 0 0 0 0.018453 -0.040039 -0.646003 0 0 -0.00160516 -30.598 14.0482 52.5458 0.0025 
1478 1 0.0019973 -0.0151423 0.0030661 0 0 0 0.0296346 -0.438578 -0.328105 0.0687545 -0.0516758 0.0117351 -11.9145 13.2256 -8.74387 0.0025 
322 1 0.015463 -0.0174425 0.00733762 0 0 0 0.288306 0.590272 0.241107 0 0 -0.00160516 28.3129 -26.0329 -72.1869 0.0025 
960 1 0.020666 -0.0139297 0.00370925 0 0 0 0.0639928 0.341449 -0.501616 0 0 -0.00160516 -6.06068 -19.3958 1.68764 0.0025 
514 1 -0.0371888 -0.0108014 0.00381089 0 0 0 0.0001542 0.0279946 -0.652627 0 0 -0.00160516 -22.0685 -55.9157 -20.7323 0.0025 
1491 1 -0.0107867 -0.0114978 0.0079102 0 0 0 -0.408511 -0.223202 0.671984 0 0 -0.00160516 -2.88685 -7.65519 -17.77 0.0025 
1085 1 0.0400735 -0.0118819 0.00565701 0 0 0 0.385057 -0.119767 -0.0353207 0 0 -0.00160516 30.0026 10.4886 -12.575 0.0025 
744 1 -0.0310567 -0.00902666 0.00244704 0 0 0 -0.0602293 -0.364317 -0.631962 0.000377199 0.00459026 0.0905096 -79.6385 -5.69552 -12.9249 0.0025 
1754 1 -0.0265584 -0.00844272 0.00624688 0 0 0 0.220241 0.14569 -0.0858118 0 0 -0.00160516 0.821283 -27.2856 19.8442 0.0025 
368 1 0.0147372 -0.0111077 0.00288231 0 0 0 -0.220334 -0.225116 -0.395506 0 0 -0.00160516 -3.48042 -15.0797 19.4967 0.0025 
792 1 -0.0391467 -0.00601389 0.00425279 0 0 0 -0.494336 -0.217663 -0.752142 0 0 -0.00160516 22.7129 -4.68587 -25.3009 0.0025 
1411 1 -0.0181498 -0.00667703 0.00391628 0 0 0 0.179178 0.0935223 -0.292182 0.0226059 -0.0445985 -0.00930676 -45.1757 21.2691 -18.7059 0.0025 
1358 1 -0.0110045 -0.00723542 0.00442398 0 0 0 -0.274276 -0.0541661 -0.152363 0 0 -0.00160516 -22.4385 62.7346 1.54291 0.0025 
53 1 0.0132145 -0.00454941 0.0057669 0 0 0 -0.111482 0.722076 -0.451695 0 0 -0.00160516 -45.5063 -28.0265 8.01173 0.0025 
836 1 0.0371596 -0.00547638 0.00396433 0 0 0 0.0439606 0.0678193 -0.873049 0 0 -0.00160516 -24.1695 -2.26872 -26.8846 0.0025 
267 1 -0.0334862 -0.00127152 0.00384282 0 0 0 -0.33308 -0.0461531 -0.510208 -0.0204644 -0.000195466 -0.0385158 12.1589 15.508 19.6058 0.0025 
133 1 -0.0202272 -0.00228578 0.00487552 0 0 0 0.273687 0.0450591 -0.24112 -0.0226059 0.0445985 0.00609644 12.6015 -36.795 33.1452 0.0025 
47 1 -0.00589782 -0.0043595 0.00532568 0 0 0 0.289009 -0.543658 -0.0848435 0 0 -0.00160516 -11.9656 14.3033 32.9863 0.0025 
1109 1 -0.00195065 5.82457e-06 0.00463862 0 0 0 -0.351066 0.469316 -0.421553 0 0 -0.00160516 -23.5039 86.6991 -7.31452 0.0025 
1153 1 0.00473801 -0.00256503 0.00543312 0 0 0 -0.579503 -0.00265041 0.667275 0 0 -0.00160516 -31.6248 -29.1803 18.7846 0.0025 
645 1 0.00943761 -0.0011247 0.00376626 0 0 0 -0.329984 -0.0603586 2.25659e-05 0 0 -0.00160516 10.3046 -19.0421 -22.4379 0.0025 
400 1 -0.0270396 0.00132559 0.00330507 0 0 0 -0.31232 -0.256889 -0.349872 0 0 -0.00160516 10.0776 -72.0998 10.4676 0.0025 
1515 1 -0.0162669 0.00111424 0.00646095 0 0 0 0.0649451 -0.30782 -0.218748 0 0 -0.00160516 18.6559 -16.4377 9.80371 0.0025 
831 1 -0.00976414 0.0050239 0.00560851 0 0 0 -0.155915 -0.429526 0.421145 0 0 -0.00160516 -54.8893 -34.1069 -17.7438 0.0025 
849 1 0.00241008 0.00309047 0.00610082 0 0 0 -0.393495 -0.487088 -0.273682 0 0 -0.00160516 104.197 25.6031 -27.8109 0.0025 
1021 1 0.0129156 0.00653046 0.00290599 0 0 0 0.0770035 -0.0723181 -0.46109 0 0 -0.00160516 -25.9741 -115.286 -11.2391 0.0025 
1321 1 0.0218936 0.00554624 0.00667203 0 0 0 0.238093 0.167339 -0.00117972 0.0374794 0.00690974 -0.0213874 27.1667 10.4605 72.3143 0.0025 
1106 1 0.034399 0.00619544 0.00542207 0 0 0 0.190634 0.278769 -0.301351 0 0 -0.00160516 49.5346 -50.2141 42.6155 0.0025 
122 1 0.0460412 0.00505722 0.00451271 0 0 0 -0.260732 -0.0212935 -0.285428 0.542853 0.205215 -0.343567 2.9929 22.1675 47.4139 0.0025 
821 1 -0.0105848 0.00994764 0.00440188 0 0 0 -0.0938116 -0.290456 -0.545934 0 0 -0.00160516 8.25625 -14.6683 6.92785 0.0025 
270 1 -0.00591153 0.00834753 0.00654966 0 0 0 0.324489 -0.33486 -0.0119433 -0.00227186 -0.0388049 0.0375613 25.6926 27.4106 21.1018 0.0025 
294 1 0.000808123 0.00899928 0.00658303 0 0 0 0.134841 0.364911 0.0113547 0 0 -0.00160516 -71.8899 -52.833 0.082287 0.0025 
779 1 0.0200079 0.00983473 0.00445304 0 0 0 -0.231118 0.166139 0.314769 0 0 -0.00160516 41.1205 -27.0942 -22.0933 0.0025 
815 1 0.0282202 0.00877814 0.00503403 0 0 0 0.0924236 0.14392 0.368553 -0.00275571 0.00435688 0.00100432 43.8212 34.6272 -6.15446 0.0025 
494 1 -0.0363354 0.0106729 0.00362459 0 0 0 -0.0372231 -0.148115 -0.745906 0 0 -0.00160516 -38.1231 3.76042 -19.8326 0.0025 
519 1 -0.022217 0.012974 0.00345177 0 0 0 -0.447037 0.332677 -0.587827 0 0 -0.00160516 18.4346 -5.78933 50.4629 0.0025 
1732 1 0.00572378 0.011391 0.00499575 0 0 0 0.263962 0.0422582 -0.309174 0 0 -0.00160516 61.3443 -2.57169 13.7887 0.0025 
1344 1 0.0434999 0.0136471 0.00532206 0 0 0 0.401601 -0.0542622 0.143237 0 0 -0.00160516 4.22985 -2.65692 -17.219 0.0025 
1231 1 -0.0429812 0.0189403 0.004409 0 0 0 -0.0178433 0.6772 -0.0804973 0 0 -0.00160516 22.1246 26.3083 -57.6949 0.0025 
159 1 -0.0384353 0.0158131 0.00371872 0 0 0 -0.0215372 -0.258586 -0.42317 0 0 -0.00160516 18.9241 -12.8437 -7.57384 0.0025 
1261 1 -0.0231053 0.0178336 0.00609675 0 0 0 0.382718 0.12578 0.124544 0 0 -0.00160516 13.2322 19.8847 -40.4429 0.0025 
1402 1 0.001915 0.0152857 0.00696328 0 0 0 0.11955 -0.0657177 -0.0699846 0 0 -0.00160516 1.45518 -8.67183 9.81716 0.0025 
327 1 0.0336512 0.0172854 0.00375163 0 0 0 -0.0171569 0.598645 -0.556978 0 0 -0.00160516 2.07474 -3.35422 18.528 0.0025 
511 1 -0.0147362 0.0209312 0.00699793 0 0 0 0.545226 0.452779 0.0528649 0 0 -0.00160516 -28.5861 25.7654 9.55979 0.0025 
1414 1 -0.00840315 0.0206286 0.00493055 0 0 0 -0.37907 0.30775 -0.594265 0 0 -0.00160516 13.7505 -8.3949 11.8805 0.0025 
1243 1 0.00863513 0.0181429 0.00323098 0 0 0 0.0238535 -0.136482 -0.623687 0 0 -0.00160516 25.3654 -9.75483 9.72214 0.0025 
1564 1 -0.0279657 0.0229838 0.00617696 0 0 0 -0.110686 0.316919 -0.24068 0 0 -0.00160516 -11.048 2.0247 -13.3025 0.0025 
708 1 -0.00222236 0.0216047 0.0062089 0 0 0 0.274738 -0.233693 0.124481 -0.00321337 0.00131852 -0.00475666 6.6422 39.3334 7.06686 0.0025 
151 1 0.00803784 0.022741 0.00591221 0 0 0 -0.00603036 -0.170265 -0.0828977 0 0 -0.00160516 64.9153 -22.3838 25.6069 0.0025 
1799 1 0.0146202 0.0218456 0.00547128 0 0 0 -0.0702185 0.193814 -0.162082 0 0 -0.00160516 78.2505 -5.91604 -30.1663 0.0025 
83 1 0.0283384 0.0213002 0.00614516 0 0 0 0.114396 -0.10676 0.0245018 0 0 -0.00160516 -10.8256 34.9944 37.864 0.0025 
728 1 0.0324897 0.0244654 0.00476696 0 0 0 0.0934159 0.281999 -0.366705 0.0569184 -0.113626 -0.167591 -5.79001 -15.0713 32.8361 0.0025 
1351 1 -0.0354408 0.0295719 0.00689886 0 0 0 -0.268681 0.241311 -0.136074 0 0 -0.00160516 61.1464 -5.21659 6.99804 0.0025 
300 1 -0.00930576 0.0292748 0.00766021 0 0 0 0.148191 -0.0743567 0.465966 0 0 -0.00160516 -9.98826 25.458 -12.8055 0.0025 
1520 1 -0.00417005 0.0303175 0.0047614 0 0 0 0.258899 -0.0262946 0.501004 -0.00038987 0.00181527 -0.0186658 50.2014 23.2294 -1.89886 0.0025 
1498 1 -0.0144604 0.0354255 0.00389162 0 0 0 -0.394664 0.546061 0.132973 0 0 -0.00160516 39.0526 -10.4002 25.0853 0.0025 
1522 1 0.0120448 0.0328803 0.00581476 0 0 0 0.422983 0.219892 -0.0779973 0 0 -0.00160516 58.1127 -14.373 0.528677 0.0025 
111 1 0.0339468 0.0333784 0.00508519 0 0 0 0.00883282 0.181693 -0.14526 -0.162033 -0.173211 0.00489781 3.4016 -28.2492 5.45283 0.0025 
1539 1 -0.0283446 0.0372523 0.00660706 0 0 0 -0.00390833 0.607277 0.152446 0 0 -0.00160516 -17.9389 -50.7964 -3.29542 0.0025 
1293 1 -0.0213668 0.036904 0.00339377 0 0 0 -0.231727 0.414672 -0.358159 0 0 -0.00160516 -86.225 54.3894 -4.26516 0.0025 
1533 1 -0.00666254 0.0365069 0.00239127 0 0 0 -0.215366 0.229361 -0.594322 0.00662618 -0.0106024 0.248448 46.4779 -0.358354 12.3619 0.0025 
999 1 0.00704406 0.0351524 0.00545127 0 0 0 0.249375 -0.401515 0.362413 0 0 -0.00160516 -34.3997 0.822097 19.6811 0.0025 
228 1 0.015457 0.0389194 0.00436878 0 0 0 0.366155 0.158192 -0.0905504 0 0 -0.00160516 39.2061 -35.0165 -10.1729 0.0025 
1668 1 -0.0102646 0.0414915 0.00575132 0 0 0 0.292661 0.220804 0.462454 0 0 -0.00160516 -45.6062 60.448 1.12664e-14 0.0025 
1572 1 -0.00347646 0.0401387 0.00479336 0 0 0 -0.0438062 0.0285485 0.281509 0 0 -0.00160516 -1.93028 6.79798 -27.354 0.0025 
1176 1 -0.014951 0.043984 0.00592393 0 0 0 -0.22805 -0.613257 -0.197334 0 0 -0.00160516 25.1768 -46.7495 -29.9966 0.0025 
1287 1 -0.00143121 0.0465533 0.00443451 0 0 0 0.0852436 0.551865 -0.404718 0 0 -0.00160516 33.1917 -41.4266 12.5427 0.0025 
947 1 0.0135145 0.0456236 0.00453659 0 0 0 0.200954 0.566795 -0.0396619 -0.047784 -0.163797 0.00689679 -45.2776 -26.5298 17.1573 0.0025 
1476 1 0.0104347 -0.0413385 0.00753643 0 0 0 -0.261188 -0.505302 -0.0483927 0 0 -0.00160516 41.5852 -19.6469 1.22147 0.0025 
896 1 -0.0169604 -0.0367662 0.00902888 0 0 0 -0.162958 -0.348589 -0.364291 0 0 -0.00160516 43.4916 18.1112 -12.124 0.0025 
1072 1 0.00167024 -0.0391331 0.00851705 0 0 0 0.521093 -0.205282 -0.815249 0 0 -0.00160516 9.97122 25.3333 -2.63416 0.0025 
1208 1 0.00556334 -0.0327186 0.0103215 0 0 0 -0.481238 -0.0150737 -0.143104 0 0 -0.00160516 -37.665 39.6214 10.076 0.0025 
678 1 0.0164175 -0.0351256 0.00867918 0 0 0 -0.132025 -0.104381 -0.0988692 -0.0426697 0.0111739 -0.217752 -12.1342 -24.0766 9.59324 0.0025 
1033 1 0.0292246 -0.0361439 0.00982114 0 0 0 0.374142 -0.387526 0.243106 0 0 -0.00160516 -70.2835 -1.1266 8.95662 0.0025 
616 1 -0.026 -0.0306467 0.00757346 0 0 0 -0.0315049 0.127317 -0.686052 0 0 -0.00160516 -33.5987 -6.58626 8.6738 0.0025 
1483 1 -0.0203886 -0.0284788 0.00828057 0 0 0 -0.439919 0.101659 -0.104609 -0.0447091 0.027189 0.251664 -25.4426 -8.43716 -24.1088 0.0025 
664 1 -0.0138893 -0.0305249 0.00994272 0 0 0 0.148526 0.0204805 0.000794709 0 0 -0.00160516 30.3711 -9.02041 5.80273 0.0025 
120 1 0.0264658 -0.0310306 0.00980634 0 0 0 -0.0843234 -0.313457 -0.0822279 0 0 -0.00160516 2.96623 -34.4064 -16.8306 0.0025 
802 1 -0.03118 -0.0286882 0.00749846 0 0 0 0.00648066 -0.640973 -0.306722 0 0 -0.00160516 22.7224 4.18543 -29.7741 0.0025 
168 1 -0.0103832 -0.0273867 0.00792127 0 0 0 -0.0926391 0.175141 -1.02046 0 0 -0.00160516 -7.93673 18.2368 0.736329 0.0025 
1471 1 0.000977141 -0.0257003 0.00796027 0 0 0 0.277752 -0.0675778 -0.0538043 0.00637633 0.0589579 0.0118437 -15.4661 4.45916 12.3635 0.0025 
981 1 0.00722212 -0.0274965 0.0113377 0 0 0 0.116947 -0.0627795 0.357434 0 0 -0.00160516 3.8828 36.7027 28.9346 0.0025 
924 1 -0.0372487 -0.0222506 0.00909424 0 0 0 -0.579428 0.120843 0.0953446 0 0 -0.00160516 29.691 73.786 1.17931 0.0025 
1727 1 -0.0168686 -0.022862 0.0104804 0 0 0 -0.255295 0.108727 -0.282129 -0.140807 0.042908 -0.0417513 38.9875 -27.9692 -34.6245 0.0025 
1770 1 -0.0100756 -0.0212382 0.00721637 0 0 0 -0.290198 -0.0293094 -0.471979 0 0 -0.00160516 -40.0221 -70.6695 35.1448 0.0025 
359 1 -0.00644377 -0.0229457 0.0105244 0 0 0 0.119484 0.409816 -0.115905 0 0 -0.00160516 89.4563 3.51003 20.7586 0.0025 
1001 1 0.0083313 -0.0224812 0.00780031 0 0 0 -0.573656 0.0808963 -0.202004 0 0 -0.00160516 -23.0163 12.012 10.0645 0.0025 
1530 1 0.0141191 -0.022569 0.00712819 0 0 0 -0.38607 0.116781 0.0227861 0 0 -0.00160516 30.8387 -46.3386 15.5016 0.0025 
786 1 0.0254476 -0.0239314 0.00900332 0 0 0 0.0437243 -0.230708 -0.739809 0 0 -0.00160516 -62.9324 -6.56776 -14.5243 0.0025 
1383 1 0.0333051 -0.0238263 0.0076475 0 0 0 0.15656 -0.0954395 0.116709 0 0 -0.00160516 -23.6616 -35.1899 -1.27383 0.0025 
408 1 -0.0317167 -0.0213059 0.00699609 0 0 0 -0.499372 -0.320363 0.0833411 0.00133882 -0.00281037 0.00508858 -23.7037 -20.9862 -23.9199 0.0025 
1341 1 0.00215852 -0.0200284 0.00716068 0 0 0 0.134665 -0.0714585 -0.73314 0 0 -0.00160516 5.27652 4.8714 -4.65149 0.0025 
1155 1 0.0404487 -0.0199187 0.00979498 0 0 0 0.3942 -0.0424929 0.42447 0 0 -0.00160516 -58.8158 74.8369 15.3359 0.0025 
328 1 -0.0248127 -0.0155484 0.00835661 0 0 0 -0.254993 -0.135072 -0.136041 0 0 -0.00160516 -2.64036 -3.42952 7.24755 0.0025 
1447 1 -0.0139407 -0.0150561 0.00948033 0 0 0 0.161153 -0.37489 -0.106121 0 0 -0.00160516 -10.5816 -53.6068 -0.196796 0.0025 
778 1 -0.00927065 -0.0161819 0.00652022 0 0 0 -0.0553502 0.582812 -0.897347 -0.00377525 -0.00238498 0.00575347 -23.3346 -33.0114 0.508593 0.0025 
1004 1 0.0103484 -0.0169272 0.00910221 0 0 0 -0.169099 -0.102844 -0.311941 0 0 -0.00160516 -37.3021 -9.38254 29.8491 0.0025 
95 1 0.0195134 -0.0175514 0.0102941 0 0 0 0.0378539 -0.44268 0.171375 0 0 -0.00160516 49.7586 11.4153 14.1454 0.0025 
288 1 0.0254736 -0.0172228 0.00757351 0 0 0 0.325344 0.148667 -0.225263 0.0477029 -0.110245 -0.0786966 -61.2528 -80.1179 25.88 0.0025 
1800 1 0.0318793 -0.0161115 0.00747629 0 0 0 0.118411 -0.432364 0.0535851 0 0 -0.00160516 -3.79689 27.242 20.3417 0.0025 
587 1 0.0414126 -0.0148594 0.0099951 0 0 0 0.546371 0.350347 -0.22722 0 0 -0.00160516 -12.2794 -32.6547 -3.01265 0.0025 
186 1 -0.0454091 -0.0109514 0.00931076 0 0 0 -0.241243 0.0265948 0.387069 0 0 -0.00160516 -7.57935 -68.7529 6.33121e-17 0.0025 
254 1 -0.0317148 -0.0116449 0.00748035 0 0 0 -0.572434 0.325414 -0.191158 0.134248 0.16258 0.201054 4.1273 17.0361 20.0981 0.0025 
296 1 -0.0217221 -0.0107421 0.0081237 0 0 0 0.25472 0.526622 -0.20036 0 0 -0.00160516 55.2766 -39.092 -60.0884 0.0025 
1227 1 -0.00559432 -0.0132386 0.00821841 0 0 0 -0.225852 0.343773 -0.493846 0 0 -0.00160516 -10.2436 11.9254 27.95 0.0025 
116 1 0.00451625 -0.0117375 0.0100029 0 0 0 0.282755 0.356939 0.191261 -0.0416501 -0.0728828 -0.183509 32.6402 -32.9948 -6.44581 0.0025 
1693 1 -0.0157732 -0.00822186 0.00869624 0 0 0 -0.138867 0.00506069 0.294734 0 0 -0.00160516 19.536 -1.25502 -31.4058 0.0025 
562 1 0.00886439 -0.00811836 0.00711012 0 0 0 0.0475162 0.0118493 0.247464 0.0188804 0.148029 0.205871 7.15974 22.8919 37.3053 0.0025 
373 1 0.0208348 -0.00963667 0.00739473 0 0 0 0.441428 -0.0343307 0.228006 0.00707547 -0.0179617 0.0602356 29.2354 16.9393 1.41578 0.0025 
1390 1 0.0359093 -0.00934768 0.00810808 0 0 0 0.0402367 0.163528 -0.213946 0 0 -0.00160516 43.1021 -63.8038 21.6887 0.0025 
1049 1 0.044752 -0.010867 0.00761657 0 0 0 0.296181 -0.213126 0.304696 0 0 -0.00160516 3.64862 42.9564 16.527 0.0025 
1059 1 -0.0438917 -0.00389071 0.00733346 0 0 0 -0.424219 0.566756 -0.670751 0 0 -0.00160516 -24.375 -10.1108 -23.8122 0.0025 
1759 1 -0.0321853 -0.00619732 0.00764462 0 0 0 -0.159345 0.198705 -0.186021 0 0 -0.00160516 -27.777 10.7551 9.10893 0.0025 
1337 1 -0.00879237 -0.00617218 0.00935666 0 0 0 0.380261 0.080026 -0.393048 -0.022305 -0.00224213 -0.00647387 -3.09534 4.59116 -7.21535 0.0025 
1214 1 -0.00401564 -0.00569652 0.0106533 0 0 0 0.08847 0.109037 0.0637812 0.022305 0.00224213 0.00326356 -1.13053 32.87 35.7851 0.0025 
932 1 0.00108131 -0.00639326 0.00921754 0 0 0 0.558456 -0.105271 -0.424734 0 0 -0.00160516 -34.0224 -1.92894 15.2402 0.0025 
1606 1 0.0308465 -0.00811457 0.00768111 0 0 0 0.0140268 -0.615951 -0.309985 0 0 -0.00160516 56.5043 -32.3903 -28.163 0.0025 
29 1 -0.0376395 -0.0029112 0.00922061 0 0 0 -0.159559 -0.205396 -0.185255 0 0 -0.00160516 58.1197 13.3016 -26.6351 0.0025 
1043 1 -0.0312501 -0.00108501 0.00825867 0 0 0 -0.265526 0.0600833 -0.00594236 0.0204644 0.000195466 0.0353055 4.91212 -30.7841 -8.12943 0.0025 
901 1 -0.0262988 -0.00300617 0.00863101 0 0 0 -0.147328 -0.0264061 0.290439 0 0 -0.00160516 -23.2401 -82.597 -5.99969 0.0025 
32 1 -0.0122014 -0.00109595 0.00903501 0 0 0 0.0915122 0.551826 0.109103 0 0 -0.00160516 7.68529 36.9501 -34.2923 0.0025 
1042 1 0.0151452 -0.00111715 0.0095308 0 0 0 0.332864 -0.0394457 -0.386996 0 0 -0.00160516 8.30247 19.286 1.49163 0.0025 
217 1 0.0247664 -0.000257209 0.00816749 0 0 0 0.368867 0.0345112 -0.195144 0 0 -0.00160516 -1.66621 40.2619 -4.97523 0.0025 
874 1 -0.0426828 0.00257057 0.00809253 0 0 0 -0.483334 0.259013 0.0423076 0 0 -0.00160516 -37.9283 -43.5917 -6.21349 0.0025 
695 1 0.00916476 0.00193359 0.00774141 0 0 0 -0.258674 0.313864 -0.678286 5.36014e-05 -0.000785873 -0.000462324 19.9532 34.4689 -28.6956 0.0025 
844 1 0.0353038 0.000352423 0.00752548 0 0 0 -0.287158 -0.155121 -0.0175167 0 0 -0.00160516 28.0668 62.518 27.3581 0.0025 
463 1 0.0422821 0.0037778 0.00707799 0 0 0 0.232903 0.192915 -0.252538 -0.542853 -0.205215 0.340357 -34.7831 18.6094 12.3296 0.0025 
1027 1 0.0450295 0.00122552 0.0113986 0 0 0 -0.413843 0.198067 0.414142 0 0 -0.00160516 -39.216 113.229 -31.234 0.0025 
1484 1 -0.0330633 0.00649977 0.00782537 0 0 0 -0.407131 -0.224555 0.0698314 -0.000384819 -0.000377151 -0.00155826 -7.18709 11.8291 -31.7347 0.0025 
1657 1 -0.0199929 0.00444632 0.00893952 0 0 0 -0.501574 -0.507098 -0.594309 0 0 -0.00160516 -11.4615 -41.7399 -13.9536 0.0025 
88 1 -0.00324729 0.00421947 0.00869043 0 0 0 -0.0692978 -0.274678 -0.770865 0 0 -0.00160516 -32.8301 -8.13158 -61.0705 0.0025 
769 1 0.0174563 0.0047549 0.00873426 0 0 0 0.162428 -0.060849 -0.398783 -0.0374794 -0.00690974 0.0181771 18.8697 -32.4038 17.9948 0.0025 
1006 1 0.0269672 0.0054866 0.00914056 0 0 0 -0.292635 0.134403 0.455105 0.0573725 -0.12971 -0.169431 10.2658 13.0257 -33.937 0.0025 
1761 1 -0.0293441 0.00979935 0.00735706 0 0 0 -0.0460252 -0.27951 -0.287347 0.000384819 0.000377151 -0.00165206 -111.613 44.1702 15.6522 0.0025 
91 1 -0.0243972 0.00680032 0.00758593 0 0 0 -0.214493 -0.268212 0.289077 0 0 -0.00160516 25.2908 17.2772 0.625412 0.0025 
897 1 -0.0156045 0.0073595 0.00817771 0 0 0 0.096504 0.0875759 -0.131279 0 0 -0.00160516 42.8538 4.29894 -4.49045 0.0025 
787 1 -0.00980643 0.00920259 0.00985021 0 0 0 0.207618 0.252108 0.111959 0.0090753 -0.0114978 0.00426981 -30.1055 81.4229 -1.69327 0.0025 