ITEM: TIMESTEP
1600
ITEM: NUMBER OF ATOMS
1800
ITEM: BOX BOUNDS mm mm mm
-0.05 0.05
-0.05 0.05
0 0.15
ITEM: ATOMS id type x y z ix iy iz vx vy vz fx fy fz omegax omegay omegaz radius 
187 1 0.0206843 -0.0365253 0.00262707 0 0 0 -0.120081 -0.282333 0.444304 0 0 -0.00160516 -4.87937 2.07529 -2.69079e-14 0.0025 
1443 1 -0.00167787 -0.0313854 0.00250741 0 0 0 -0.168463 -0.136165 0.346757 0 0 -0.00160516 12.9721 -59.2606 8.74662 0.0025 
1740 1 0.0188555 -0.0297824 0.00249843 0 0 0 -0.0947122 0.140254 0.349093 0.103204 0.0706613 -0.030413 8.61003 -35.1766 -9.69295 0.0025 
1768 1 -0.031031 -0.0281936 0.00343445 0 0 0 -0.0104125 -0.210679 0.357032 0 0 -0.00160516 -3.95908 -15.5284 -17.3371 0.0025 
1483 1 -0.0194668 -0.0281326 0.00499745 0 0 0 0.173399 -0.150746 0.547227 0 0 -0.00160516 -7.4346 -8.32386 2.22564 0.0025 
1568 1 -0.00728006 -0.0253452 0.00235015 0 0 0 -0.0483073 0.0929304 0.246581 0.00871255 -0.0167606 0.376192 -1.58551 -0.824183 -2.16904e-14 0.0025 
15 1 0.0018845 -0.0279821 0.00477376 0 0 0 -0.280439 0.0436239 0.344141 0 0 -0.00160516 -3.50021 6.597 17.5044 0.0025 
1418 1 -0.023882 -0.0248309 0.00396126 0 0 0 -0.138491 -0.31283 0.372059 0 0 -0.00160516 30.2235 36.2697 -1.09888 0.0025 
1727 1 -0.0170514 -0.0220914 0.00573693 0 0 0 0 0 0.499196 0 0 -0.00160516 0 0 0 0.0025 
603 1 -0.00129269 -0.0217026 0.00304218 0 0 0 -0.123793 0.0385764 -0.608001 0 0 -0.00160516 10.6221 33.321 -0.0267146 0.0025 
740 1 0.0104563 -0.0217234 0.00247836 0 0 0 -0.112698 -0.335133 -0.474471 0.000463707 0.00131899 0.0263574 -48.7527 19.197 -0.925468 0.0025 
960 1 0.0218926 -0.0167014 0.00511159 0 0 0 -0.0596503 -0.086837 -0.240275 0 0 -0.00160516 0.537589 7.15609 -7.83558 0.0025 
693 1 -0.0350959 -0.0120883 0.00434278 0 0 0 0.296001 -0.0326313 0.443856 0 0 -0.00160516 -1.69485 -15.3741 6.33121e-17 0.0025 
1002 1 -0.0272033 -0.0130224 0.00272138 0 0 0 0.297287 -0.337949 0.140179 0 0 -0.00160516 -51.5879 -65.1463 -2.92102 0.0025 
311 1 0.00822447 -0.0127217 0.00243644 0 0 0 0.280284 0.122343 0.35075 -0.00474463 -0.00145882 0.0976715 -15.3866 2.35282 -3.72573 0.0025 
1392 1 0.0275958 -0.0122696 0.00449725 0 0 0 0.297575 0.208789 -0.0703275 0 0 -0.00160516 51.745 -32.48 3.62746 0.0025 
1411 1 -0.021074 -0.00821234 0.00308654 0 0 0 -0.0764467 -0.361749 0.00489132 0 0 -0.00160516 -16.397 -11.371 -20.024 0.0025 
368 1 0.0160101 -0.0110528 0.00393939 0 0 0 -0.181475 -0.340401 0.394709 0 0 -0.00160516 18.0819 -12.2135 20.3442 0.0025 
1626 1 0.0221848 -0.00774552 0.00336115 0 0 0 0.0280279 -0.0636019 0.347863 0 0 -0.00160516 14.7622 3.36692 35.8326 0.0025 
1153 1 0.00808964 -0.00367137 0.00387991 0 0 0 -0.0171552 0.155829 0.180719 -0.026354 0.015582 -0.0291805 14.844 -16.5195 -15.6878 0.0025 
1711 1 0.0284066 -0.00658932 0.00416457 0 0 0 0.00614066 -0.0789318 -0.00258033 0.000276891 0.000204648 -0.00223101 6.16105 5.74106 8.30398 0.0025 
836 1 0.0378144 -0.00411443 0.00250674 0 0 0 -0.0943021 0.15713 -0.382231 0.0103215 -0.123964 -0.0938424 5.61784 -19.8154 -30.552 0.0025 
1043 1 -0.0294758 -0.00140817 0.00518584 0 0 0 -0.258758 -0.0128155 0.544654 0 0 -0.00160516 -1.18049 9.10523 -8.96125 0.0025 
1016 1 -0.0193094 -0.00268825 0.0026669 0 0 0 -0.119061 0.033716 0.431666 0 0 -0.00160516 -6.06876 -8.34642 22.9374 0.0025 
1643 1 0.0207901 -0.0017475 0.00323228 0 0 0 -0.234796 0.224293 0.294049 0 0 -0.00160516 20.4863 15.4058 23.9639 0.0025 
517 1 -0.0243191 -0.00183593 0.00399358 0 0 0 -0.050294 -0.357823 0.112147 0 0 -0.00160516 -11.0212 20.2735 2.55861 0.0025 
1109 1 -0.000323936 0.000116011 0.0046237 0 0 0 0.577844 -0.0265364 0.342277 -0.040389 0.0555136 0.0210115 56.4248 18.741 -18.9326 0.0025 
494 1 -0.0344561 0.00674205 0.00268426 0 0 0 -0.0893684 0.223861 0.0371339 0 0 -0.00160516 18.0497 -0.97461 7.15191 0.0025 
1484 1 -0.028038 0.00505152 0.00525486 0 0 0 -0.28852 0.256486 0.449991 0 0 -0.00160516 7.37351 4.76876 -15.5706 0.0025 
315 1 0.00409762 0.00392971 0.00477956 0 0 0 -0.094939 0.0412754 0.473482 0 0 -0.00160516 -4.54762 -10.4601 -5.45604e-15 0.0025 
796 1 -0.0393796 0.00770331 0.0055763 0 0 0 0 0 0.50606 0 0 -0.00160516 0 0 0 0.0025 
294 1 -0.00122504 0.010883 0.00539756 0 0 0 -0.119617 0.114517 0.41073 0 0 -0.00160516 -0.233624 -0.244028 2.21274e-14 0.0025 
516 1 -0.0232806 0.0114262 0.00472685 0 0 0 0.082886 -0.57093 -0.141324 -0.0101755 0.00935366 -0.0232095 -43.812 -6.95174 -0.29093 0.0025 
565 1 -0.0163481 0.0144656 0.00243968 0 0 0 0.0030571 -0.287207 0.110397 -0.000694933 0.00474372 0.0942819 4.49863 -15.1418 4.32921 0.0025 
430 1 0.0100667 0.0161166 0.00393234 0 0 0 -0.229313 -0.270465 0.0566132 0 0 -0.00160516 21.8807 -36.2482 3.60462 0.0025 
1685 1 -0.0218625 0.0245859 0.00261103 0 0 0 -0.371929 0.060241 -0.082621 0 0 -0.00160516 -9.66412 8.37367 10.3208 0.0025 
1351 1 -0.0307516 0.027404 0.00539283 0 0 0 0 0 0.513697 0 0 -0.00160516 0 0 0 0.0025 
361 1 0.0154858 0.0289492 0.00329714 0 0 0 0.00734275 -0.0589429 0.204401 0.0544906 0.012509 -0.283357 39.7232 7.78709 20.2621 0.0025 
218 1 0.026322 0.0268501 0.00240229 0 0 0 0.259455 0.244518 0.283114 -0.00821775 -0.00533713 0.194371 -20.3083 -16.5114 9.25039 0.0025 
484 1 0.0352845 0.0269993 0.00383961 0 0 0 0.141377 0.121906 0.490981 0 0 -0.00160516 -42.2366 48.9823 0.00240183 0.0025 
1539 1 -0.025103 0.0308114 0.00286547 0 0 0 -0.432713 0.223713 0.302942 0 0 -0.00160516 -56.6068 -7.29845 -0.856301 0.0025 
1572 1 -0.00022808 0.0372872 0.00362973 0 0 0 -0.0733901 0.383966 0.248554 0 0 -0.00160516 10.4183 1.99132 -3.35355e-15 0.0025 
947 1 0.00846499 0.0415067 0.00368712 0 0 0 0.353295 0.116523 0.138048 0 0 -0.00160516 -65.9765 -30.6938 13.1677 0.0025 
1749 1 -0.0126982 -0.0407631 0.00790229 0 0 0 -0.0396642 -0.451939 -0.08754 0 0 -0.00160516 -29.9805 2.63122 1.7734e-15 0.0025 
1168 1 -0.0039365 -0.0414458 0.00282668 0 0 0 0.107556 -0.243061 0.37193 0 0 -0.00160516 2.73345 1.20956 -5.74084e-15 0.0025 
194 1 -0.019371 -0.0378243 0.00765323 0 0 0 0 0 0.399572 0 0 -0.00160516 0 0 0 0.0025 
823 1 0.00842501 -0.0425232 0.00623521 0 0 0 -0.146418 -0.691971 0.046028 0 0 -0.00160516 -25.019 21.4164 -24.5595 0.0025 
566 1 -0.0217054 -0.0329778 0.00348773 0 0 0 0 0 -0.656911 0 0 -0.00160516 0 0 0 0.0025 
1278 1 -0.0127241 -0.0325686 0.00728794 0 0 0 -0.0450555 0.480468 -0.176921 0 0 -0.00160516 29.8423 14.976 10.1937 0.0025 
76 1 0.00509937 -0.03285 0.00422407 0 0 0 -0.0563309 0.133887 -0.173585 0 0 -0.00160516 -24.954 -36.1963 -26.3987 0.0025 
10 1 0.0149211 -0.0326086 0.00330068 0 0 0 0.0848625 -0.0581664 -0.479019 -0.103196 -0.0707727 0.024969 39.4726 -0.358893 -14.5335 0.0025 
235 1 -0.0263712 -0.0301368 0.00473121 0 0 0 0.0508139 -0.0723234 -0.672523 0 0 -0.00160516 -4.54611 6.39824 6.53981 0.0025 
182 1 -0.00685408 -0.0316039 0.00278684 0 0 0 -0.255011 -0.0285066 0.58302 0 0 -0.00160516 8.1403 -73.5526 -3.55747 0.0025 
71 1 0.0250587 -0.0296235 0.00383297 0 0 0 0.279678 -0.0556101 -0.494437 0 0 -0.00160516 4.30588 4.05027 -35.2444 0.0025 
1119 1 0.0319733 -0.029863 0.0079996 0 0 0 0.081739 -0.0687022 0.340307 0 0 -0.00160516 -1.70504 -2.02858 2.28055e-16 0.0025 
196 1 0.00689592 -0.0270313 0.00445663 0 0 0 -0.085822 -0.193413 -0.421735 0 0 -0.00160516 -41.3504 59.96 15.4882 0.0025 
1256 1 0.0199616 -0.0254084 0.00816895 0 0 0 0.0450032 0.143339 0.448513 0 0 -0.00160516 6.43383 -3.44815 3.3565 0.0025 
1665 1 0.0290411 -0.0264037 0.00344961 0 0 0 0.664369 0.0722952 -0.364641 0 0 -0.00160516 -42.6926 -76.5173 -12.293 0.0025 
1036 1 -0.0354882 -0.0206616 0.00355741 0 0 0 0 0 0.582125 0 0 -0.00160516 0 0 0 0.0025 
1532 1 -0.0215332 -0.0202906 0.00383404 0 0 0 0.244557 -0.0907187 -0.488874 0 0 -0.00160516 5.91844 12.0692 -5.21216 0.0025 
1751 1 -0.00944205 -0.0196698 0.006654 0 0 0 0.312308 -0.223177 0.246486 0 0 -0.00160516 -10.5861 -17.7096 3.47497 0.0025 
342 1 0.0281409 -0.0207781 0.00629519 0 0 0 -0.251031 -0.281397 0.261663 0 0 -0.00160516 -15.342 13.6864 -1.20441e-14 0.0025 
1679 1 -0.0303577 -0.0177392 0.00600863 0 0 0 -0.323831 -0.177747 -0.117996 0 0 -0.00160516 -11.0608 21.0477 -3.58102 0.0025 
1478 1 0.002713 -0.0174626 0.00549488 0 0 0 -0.253067 0.00352806 -0.543714 0.021498 -0.0013137 -0.0188877 -14.0612 48.3593 25.3245 0.0025 
587 1 0.0388061 -0.0153175 0.00740878 0 0 0 0 0 0.414823 0 0 -0.00160516 0 0 0 0.0025 
186 1 -0.0415076 -0.0113815 0.00269949 0 0 0 -0.296001 0.0326313 -0.557179 0 0 -0.00160516 -1.69485 -15.3741 6.33121e-17 0.0025 
54 1 -0.0237153 -0.0128662 0.0065101 0 0 0 0.0146785 0.263704 0.244554 0 0 -0.00160516 13.8932 -1.23653 -1.88764 0.0025 
704 1 -0.0140812 -0.0147455 0.00325033 0 0 0 0.111409 0.155892 -0.0490232 0 0 -0.00160516 51.9703 21.7972 -15.962 0.0025 
1491 1 -0.0108711 -0.0110551 0.00838331 0 0 0 0 0 0.343765 0 0 -0.00160516 0 0 0 0.0025 
1490 1 -0.00352908 -0.0122876 0.00491358 0 0 0 -0.12548 0.0573387 -0.427193 0 0 -0.00160516 7.36738 17.3263 -6.04845 0.0025 
1085 1 0.034706 -0.0126909 0.00281412 0 0 0 0.558728 0.334054 -0.244601 -0.0244809 -0.0837125 -0.107366 57.9727 17.4038 5.78031 0.0025 
744 1 -0.0315188 -0.00732334 0.00269989 0 0 0 0.009938 0.171537 -0.657127 0 0 -0.00160516 1.13637 -16.8073 14.7782 0.0025 
1693 1 -0.015926 -0.00884317 0.00373015 0 0 0 0 0 -0.656911 0 0 -0.00160516 0 0 0 0.0025 
1390 1 0.0354061 -0.00981147 0.00672349 0 0 0 -0.0237021 -0.224954 0.1588 0.0244809 0.0837125 0.104156 21.8182 -38.9415 -0.587268 0.0025 
785 1 0.00227922 -0.00370582 0.00288985 0 0 0 -0.234423 -0.0493476 -0.594166 0.040389 -0.0555136 -0.0242218 1.75129 -11.9727 -1.78242 0.0025 
53 1 0.0111683 -0.00576989 0.00714533 0 0 0 0.0572302 -0.457211 0.378786 0.026354 -0.015582 0.0259702 -5.12887 10.2445 -15.2629 0.0025 
550 1 -0.0423736 -0.000754289 0.00802397 0 0 0 -0.379238 0.0795522 0.333208 0 0 -0.00160516 3.24316 17.9787 5.62579 0.0025 
1358 1 -0.0134758 -0.00392007 0.00559195 0 0 0 0.254965 -0.176398 -0.361056 0.0305742 -0.0062289 -0.0474451 -1.69101 11.9026 11.8266 0.0025 
864 1 -0.00581765 -0.000817594 0.00454255 0 0 0 -0.00261137 0.169537 -0.0887639 0 0 -0.00160516 28.3261 -13.1574 16.4717 0.0025 
251 1 0.0317615 -0.00277878 0.00276375 0 0 0 0.00192055 0.130071 -0.242685 0 0 -0.00160516 -0.868136 -2.65794 2.26075 0.0025 
1027 1 0.043506 -0.00214745 0.00316861 0 0 0 0.43599 0.219328 0.607415 0 0 -0.00160516 -39.2515 77.6607 -9.58043 0.0025 
267 1 -0.0352388 -0.00120835 0.00271539 0 0 0 0.276187 -0.128976 -0.34036 0 0 -0.00160516 37.6226 -35.3579 -14.9399 0.0025 
1321 1 0.016643 0.00238354 0.00632195 0 0 0 -0.328032 0.286835 0.473918 0 0 -0.00160516 13.9325 15.9832 -2.39203 0.0025 
1557 1 0.0251745 0.00118863 0.00320558 0 0 0 -0.126412 0.142525 0.517547 0 0 -0.00160516 -13.7361 14.4266 -4.95123 0.0025 
122 1 0.0388713 0.00426428 0.0024518 0 0 0 0.375668 0.0949583 0.415907 -0.00305491 -0.000673482 0.0609602 -2.77597 -9.65814 4.29146 0.0025 
202 1 -0.0176626 0.00638556 0.00301185 0 0 0 0.337509 0.093164 -0.559973 0 0 -0.00160516 -29.2164 -16.6901 19.0483 0.0025 
897 1 -0.0147589 0.00944514 0.00584764 0 0 0 -0.0877614 -0.203649 0.194111 0 0 -0.00160516 47.5463 22.9936 -13.0838 0.0025 
949 1 -0.00601164 0.0083134 0.00527003 0 0 0 0.396038 0.0503884 -0.304634 0.0122484 0.0191017 -0.0115204 -0.313332 -28.1146 -0.939 0.0025 
1021 1 0.0117284 0.00581658 0.00270352 0 0 0 0.184298 -0.29335 -0.722632 0 0 -0.00160516 -52.2985 -36.7267 2.35635 0.0025 
779 1 0.0233588 0.0105201 0.00236302 0 0 0 0 0 -0.434167 0 0 0.343703 0 0 0 0.0025 
473 1 0.0302486 0.00538619 0.00414827 0 0 0 0.143948 -0.343063 -0.511162 0 0 -0.00160516 -36.6428 -21.1298 2.37045 0.0025 
330 1 0.0381308 0.00913019 0.0040002 0 0 0 -0.0017563 0.0587862 0.571196 0 0 -0.00160516 2.7056 0.000389087 1.1283 0.0025 
22 1 0.0163224 0.0112856 0.00820606 0 0 0 0 0 0.359069 0 0 -0.00160516 0 0 0 0.0025 
447 1 -0.0354433 0.0144132 0.00233049 0 0 0 0 0 -0.164026 0 0 0.463945 0 0 0 0.0025 
685 1 -0.00535038 0.015704 0.00294502 0 0 0 0.0524496 -0.546723 -0.329146 0 0 -0.00160516 16.5417 -54.3139 15.7589 0.0025 
1279 1 0.0268262 0.0153747 0.00634015 0 0 0 -0.109114 -0.304087 0.00639985 0 0 -0.00160516 -40.5479 -4.65731 9.03219 0.0025 
1344 1 0.0380101 0.0156877 0.00303047 0 0 0 0 0 -0.656911 0 0 -0.00160516 0 0 0 0.0025 
756 1 -0.0300252 0.0208605 0.00488154 0 0 0 -0.0327783 0.151467 -0.605785 0 0 -0.00160516 15.2961 4.38897 9.30866 0.0025 
1306 1 -0.0248441 0.019824 0.00272553 0 0 0 -0.572337 0.308498 -0.44024 0 0 -0.00160516 -21.078 -3.87301 -20.9353 0.0025 
679 1 -0.0192096 0.0199852 0.00248205 0 0 0 -0.0346643 0.274854 0.421689 -3.0452e-05 -0.000500889 0.00843113 -45.6231 -17.8593 3.53351 0.0025 
708 1 -0.0023858 0.0205103 0.00478637 0 0 0 0.049504 0.0943855 -0.634338 0 0 -0.00160516 21.3411 -22.0163 18.2398 0.0025 
1245 1 0.00154407 0.0181687 0.00271097 0 0 0 -0.0880287 -0.321094 -0.30861 0 0 -0.00160516 -13.0015 50.2803 -10.0902 0.0025 
343 1 0.0140147 0.0193033 0.00639 0 0 0 0.284408 0.164082 0.435049 0 0 -0.00160516 -4.0559 -1.81504 3.60462 0.0025 
1400 1 0.0243743 0.0208008 0.00496361 0 0 0 0.298979 0.394289 -0.199346 0 0 -0.00160516 30.9935 -22.995 2.53956 0.0025 
1320 1 -0.0354948 0.0243637 0.00312286 0 0 0 -0.224115 0.133835 -0.566352 0 0 -0.00160516 -6.98704 -11.7003 3.02684e-16 0.0025 
1428 1 -0.0252737 0.024689 0.00808053 0 0 0 0 0 0.369168 0 0 -0.00160516 0 0 0 0.0025 
387 1 0.00304466 0.0234756 0.00624199 0 0 0 0.220643 -0.258328 0.0363368 0 0 -0.00160516 -11.2523 -9.16535 -4.73866 0.0025 
1799 1 0.0115708 0.0259981 0.00397344 0 0 0 0.396647 0.128668 -0.390518 -0.046212 -0.0353244 0.00937624 39.3469 -16.6182 28.9948 0.0025 
1753 1 0.0196617 0.0233932 0.0031176 0 0 0 -0.0250724 -0.293451 -0.507045 0 0 -0.00160516 -1.54533 42.6118 22.8869 0.0025 
728 1 0.0295377 0.0227437 0.00347656 0 0 0 -0.0187184 0.0580137 0.507161 0 0 -0.00160516 -24.3882 -7.88722 2.65912 0.0025 
1412 1 -0.0081058 0.0257976 0.00348682 0 0 0 0 0 0.584415 0 0 -0.00160516 0 0 0 0.0025 
258 1 -0.0162857 0.0278186 0.00260567 0 0 0 -0.287626 -0.170204 0.353345 0 0 -0.00160516 9.44421 -15.0801 -39.0758 0.0025 
1520 1 -0.00693733 0.0315576 0.00285534 0 0 0 0.312591 -0.187578 -0.532847 0 0 -0.00160516 24.9838 -28.4728 -24.0332 0.0025 
1058 1 0.0056951 0.0294213 0.00281519 0 0 0 -0.0839004 -0.0971094 -0.713209 0 0 -0.00160516 -32.9648 51.6213 5.96837 0.0025 
1522 1 0.0109927 0.0313126 0.00637749 0 0 0 -0.209856 -0.143595 0.100748 0 0 -0.00160516 -8.88724 16.3154 -4.90861 0.0025 
658 1 0.0244251 0.0368438 0.00645992 0 0 0 0.218394 0.244497 0.17719 0 0 -0.00160516 13.2642 -11.8481 -4.46227e-16 0.0025 
1293 1 -0.0176584 0.0359132 0.0036382 0 0 0 0 0 -0.656911 0 0 -0.00160516 0 0 0 0.0025 
193 1 -0.00726831 0.0393542 0.00285728 0 0 0 -0.0138938 0.431091 -0.289755 0 0 -0.00160516 45.0824 -9.54473 -1.92696 0.0025 
1287 1 -0.00286392 0.0405913 0.00800015 0 0 0 -0.165526 -0.151878 0.299954 0.0609336 -0.000987737 -0.031977 0.710179 -0.552725 19.2875 0.0025 
1181 1 0.00177927 0.0423114 0.00671492 0 0 0 0.358755 0.423905 -0.125945 0 0 -0.00160516 7.91353 15.2342 37.8189 0.0025 
523 1 -0.00491141 -0.0392426 0.00780283 0 0 0 -0.134329 0.303566 0.577646 0 0 -0.00160516 -56.3263 -24.9247 -5.74084e-15 0.0025 
817 1 0.0134763 -0.0403526 0.0075538 0 0 0 0.0881438 -0.283828 -0.2577 0 0 -0.00160516 18.1418 -0.889547 1.67094 0.0025 
1033 1 0.0227509 -0.0329379 0.00794857 0 0 0 0.252531 0.160485 -0.0597682 0 0 -0.00160516 -39.6251 -1.69609 -4.56632 0.0025 
634 1 -0.000610702 -0.0298086 0.00967893 0 0 0 -0.229407 0.2734 0.548247 0 0 -0.00160516 -47.0489 -45.2793 9.04808 0.0025 
1585 1 -0.0334311 -0.024812 0.00640517 0 0 0 -0.154291 -0.212217 -0.385964 0 0 -0.00160516 -64.3406 11.6121 -34.8934 0.0025 
444 1 -0.0131105 -0.0277674 0.00466499 0 0 0 0 0 -0.656911 0 0 -0.00160516 0 0 0 0.0025 
359 1 -0.00663159 -0.0265926 0.00919593 0 0 0 0.0678933 -0.130609 0.485482 0 0 -0.00160516 35.0437 18.2165 -2.16904e-14 0.0025 
886 1 0.0149697 -0.0277127 0.00687546 0 0 0 0.0275145 0.365887 -0.424687 0 0 -0.00160516 35.6523 41.0442 -29.6364 0.0025 
288 1 0.0229265 -0.020374 0.00837155 0 0 0 -0.368123 0.418714 -0.118791 -0.00256815 0.000601187 -0.0038295 -29.5008 -17.2891 -3.17163 0.0025 
1155 1 0.0337131 -0.0237352 0.00374924 0 0 0 0 0 -0.656911 0 0 -0.00160516 0 0 0 0.0025 
567 1 -0.0260838 -0.0206469 0.00653436 0 0 0 0.0908759 -0.0796549 -0.619957 0 0 -0.00160516 2.72403 4.61576 3.25139 0.0025 
1303 1 0.0115262 -0.0187868 0.00821963 0 0 0 0.184569 0.42595 0.345077 0 0 -0.00160516 -49.1957 20.5352 1.78347 0.0025 
364 1 0.0178408 -0.0196786 0.00513562 0 0 0 -0.507714 -0.376563 -0.596951 0 0 -0.00160516 18.4424 -24.9936 -0.880968 0.0025 
1123 1 -0.014404 -0.0165743 0.0080159 0 0 0 -0.220432 -0.204228 0.595732 0 0 -0.00160516 -18.1187 -65.5232 -12.487 0.0025 
1391 1 -0.000991582 -0.0172141 0.00879074 0 0 0 -0.0776413 -0.00959199 0.179017 -0.021498 0.0013137 0.0156774 11.1075 30.5277 5.98502 0.0025 
1383 1 0.0324593 -0.0161161 0.0063916 0 0 0 -0.075542 -0.31556 0.245035 0 0 -0.00160516 6.82967 -23.2271 -20.5743 0.0025 
420 1 -0.0288223 -0.0111434 0.00733436 0 0 0 0.0486174 0.498111 -0.36559 0 0 -0.00160516 -26.6303 6.59472 -6.83241 0.0025 
932 1 0.0016109 -0.00997762 0.0114015 0 0 0 -0.0131786 0.298817 0.200803 0 0 -0.00160516 -40.4224 -11.6419 0.756014 0.0025 
116 1 0.00608664 -0.0133249 0.00749784 0 0 0 -0.424589 -0.022424 0.353619 0 0 -0.00160516 27.2816 -31.1399 2.59843 0.0025 
656 1 0.0249566 -0.0142683 0.00857175 0 0 0 0.172642 0.105163 0.345737 0 0 -0.00160516 -31.9666 17.9848 -14.6 0.0025 
1226 1 0.0412329 -0.00873188 0.00434259 0 0 0 0.194456 -0.215683 -0.484693 0 0 -0.00160516 12.5135 3.21296 -10.0187 0.0025 
792 1 -0.0357232 -0.00638068 0.0101512 0 0 0 0.0673227 -0.215629 -0.266786 0.00216116 0.0544155 -0.0188875 3.94117 -10.7598 9.11093 0.0025 
133 1 -0.0207737 -0.00455978 0.00740806 0 0 0 -0.429742 0.0285538 0.0300942 0 0 -0.00160516 -54.6429 49.9798 -5.70189 0.0025 
1145 1 -0.00403784 -0.00666478 0.00796408 0 0 0 0.1393 0.187649 0.0431511 0 0 -0.00160516 -5.5736 16.3947 -9.72042 0.0025 
645 1 0.0159601 -0.00389134 0.00792107 0 0 0 -0.173184 0.500924 -0.620674 0 0 -0.00160516 7.265 -5.57209 -1.16244 0.0025 
1288 1 0.0262614 -0.00789806 0.00848073 0 0 0 -0.468903 0.0107322 0.0228864 -0.000276891 -0.000204648 -0.000979308 66.0611 60.2379 20.0757 0.0025 
874 1 -0.0372337 -0.00167301 0.0082318 0 0 0 -0.255012 0.0143473 0.693333 0 0 -0.00160516 -95.3883 -12.5937 -21.7576 0.0025 
849 1 0.00682769 0.00274279 0.0112607 0 0 0 0.144158 -0.0626737 0.374585 0 0 -0.00160516 16.3228 37.5445 -5.45604e-15 0.0025 
1006 1 0.026512 0.0010068 0.0091924 0 0 0 -0.0286826 -0.0547291 -0.669675 0 0 -0.00160516 -25.0684 26.0655 -2.07545 0.0025 
1497 1 0.0374506 -5.66202e-05 0.00522483 0 0 0 -0.0597121 0.0987507 -0.481715 -0.0103215 0.123964 0.090632 37.0054 11.6542 0.654984 0.0025 
831 1 -0.0086042 0.00446843 0.00705157 0 0 0 0.0626981 -0.137326 -0.530471 -0.0122484 -0.0191017 0.00831005 31.1456 -9.51341 -23.7659 0.0025 
1494 1 0.0209863 0.00694316 0.0051102 0 0 0 0 0 -0.656911 0 0 -0.00160516 0 0 0 0.0025 
1106 1 0.0366088 0.00586425 0.00750227 0 0 0 -0.242809 0.380324 0.259642 0 0 -0.00160516 -8.64729 -43.9962 10.0423 0.0025 
1761 1 -0.0302646 0.0104902 0.00762052 0 0 0 0.148211 0.190153 0.0017312 0 0 -0.00160516 -62.1171 41.3746 0.169717 0.0025 
870 1 0.00239663 0.00742054 0.0101554 0 0 0 0.327592 -0.309683 -0.477916 0 0 -0.00160516 4.92395 4.80233 -0.0749208 0.0025 
946 1 0.00743051 0.0115707 0.0090265 0 0 0 -0.290448 0.3797 0.0282062 0 0 -0.00160516 -32.138 -24.5837 4.15425e-16 0.0025 
821 1 -0.0104074 0.011872 0.00809735 0 0 0 -0.27245 0.247962 -0.176201 0.255656 -0.218145 0.00110684 -15.4458 -21.5136 7.94227 0.0025 
1732 1 0.00543507 0.0136555 0.00393861 0 0 0 -0.213093 -0.256752 -0.665741 0 0 -0.00160516 3.27474 -11.8807 -7.1939 0.0025 
969 1 0.0267789 0.0135991 0.0125322 0 0 0 -0.162129 -0.269992 0.393052 0 0 -0.00160516 18.947 18.7488 -2.09927 0.0025 
1231 1 -0.0387419 0.0155753 0.00676194 0 0 0 0 0 -0.656911 0 0 -0.00160516 0 0 0 0.0025 
694 1 -0.0141342 0.0149375 0.0082833 0 0 0 -0.091815 -0.170177 0.31754 -0.255656 0.218145 -0.00431715 6.15929 -31.2477 -22.4997 0.0025 
229 1 0.0197673 0.015563 0.00915742 0 0 0 -0.33397 -0.356616 -0.0385803 0 0 -0.00160516 29.2208 -24.5894 1.60097 0.0025 
327 1 0.035024 0.014963 0.00799455 0 0 0 0.29049 -0.242445 -0.524956 0 0 -0.00160516 9.18163 15.4061 8.09025 0.0025 
1637 1 -0.0231207 0.0197787 0.00829151 0 0 0 0.610675 0.312677 -0.266258 0.0147978 0.0835695 -0.0120255 1.96697 32.0414 -15.9606 0.0025 
83 1 0.0279264 0.0188985 0.00972741 0 0 0 -0.346829 -0.0734211 -0.364699 -0.00346643 0.000553293 -0.00605795 -20.7918 57.4106 -6.49496 0.0025 
1789 1 0.037507 0.0194898 0.00644457 0 0 0 0 0 -0.656911 0 0 -0.00160516 0 0 0 0.0025 
1163 1 -0.0151798 0.0237148 0.00543481 0 0 0 0 0 -0.656911 0 0 -0.00160516 0 0 0 0.0025 
1243 1 0.00814558 0.0207724 0.00984026 0 0 0 -0.110325 -0.217926 0.0928225 -0.214747 -0.0422493 -0.163046 -0.162204 49.6487 20.4983 0.0025 
1690 1 0.0233788 0.0252336 0.00811779 0 0 0 -0.321938 0.0390287 0.260852 0 0 -0.00160516 45.7715 3.19117 4.51855 0.0025 
958 1 -0.00359473 0.0260463 0.00857061 0 0 0 0.113801 0.530499 -0.0567653 0 0 -0.00160516 -1.05541 -66.3427 27.0492 0.0025 
151 1 0.00854659 0.0273272 0.0103313 0 0 0 0.0201475 0.0129129 0.123644 0 0 -0.00160516 17.8766 1.1448 22.8927 0.0025 
280 1 -0.0182058 0.0318547 0.0104107 0 0 0 0.483523 -0.0470985 -0.402341 0 0 -0.00160516 -32.6547 2.37209 10.6782 0.0025 
963 1 0.00257151 0.0298215 0.00756741 0 0 0 0.240394 0.167131 -0.528181 0 0 -0.00160516 49.2885 -23.1035 -20.155 0.0025 
1533 1 -0.00590741 0.0359086 0.00799378 0 0 0 0.189261 0.125015 -0.0387819 0 0 -0.00160516 1.72524 -1.16863 18.5286 0.0025 
999 1 0.00725808 0.0344604 0.00769974 0 0 0 -0.457485 0.562076 -0.396357 0 0 -0.00160516 -20.6135 14.151 -26.5252 0.0025 
1457 1 0.0183855 0.0349011 0.00493647 0 0 0 0 0 -0.656911 0 0 -0.00160516 0 0 0 0.0025 
228 1 0.01287 0.0365077 0.00667202 0 0 0 0 0 -0.656911 0 0 -0.00160516 0 0 0 0.0025 
1325 1 -0.0122293 -0.0361083 0.0111418 0 0 0 0.0847197 -0.0285292 0.335763 0 0 -0.00160516 -0.138219 17.6073 10.1937 0.0025 
1708 1 -0.00795949 -0.0351142 0.00734104 0 0 0 0 0 -0.656911 0 0 -0.00160516 0 0 0 0.0025 
1030 1 0.00548828 -0.0322797 0.00919794 0 0 0 0.0899282 -0.0132385 -0.518192 0 0 -0.00160516 3.06461 7.51719 -1.2692 0.0025 
678 1 0.0192618 -0.0352977 0.0123526 0 0 0 -0.270046 -0.168373 -0.00879789 0 0 -0.00160516 25.9384 -23.1566 4.78484 0.0025 
1444 1 -0.023066 -0.0311866 0.0111397 0 0 0 0.416499 -0.162707 0.0625807 0 0 -0.00160516 -23.6016 -31.49 6.53981 0.0025 
75 1 0.0186231 -0.0300447 0.00980415 0 0 0 0.374928 -0.18349 -0.33292 0 0 -0.00160516 17.8799 4.63776 -18.0639 0.0025 
9 1 0.0251504 -0.0275262 0.00962309 0 0 0 0 0 -0.656911 0 0 -0.00160516 0 0 0 0.0025 
1770 1 -0.0108612 -0.0240348 0.0100316 0 0 0 0 0 -0.656911 0 0 -0.00160516 0 0 0 0.0025 
1471 1 -0.000403878 -0.0222469 0.00865997 0 0 0 0.189968 -0.648363 0.444553 0 0 -0.00160516 -19.1303 30.142 -0.160544 0.0025 
1001 1 0.00882478 -0.0232794 0.00902026 0 0 0 0.261115 -0.00462576 -0.0734015 0 0 -0.00160516 -51.4799 4.88244 13.8092 0.0025 
924 1 -0.0346704 -0.0206391 0.00914804 0 0 0 -0.235638 0.661059 -0.141853 0 0 -0.00160516 -38.2866 0.0311963 -17.5563 0.0025 
1004 1 0.00619319 -0.0184252 0.00927725 0 0 0 0.382588 0.144042 0.11742 0 0 -0.00160516 -29.9093 24.4675 34.7629 0.0025 
1754 1 -0.02587 -0.00787371 0.0100102 0 0 0 0 0 -0.656911 0 0 -0.00160516 0 0 0 0.0025 
373 1 0.016332 -0.0110957 0.0103775 0 0 0 0.0247465 -0.181284 -0.431387 0.0220006 0.117317 -0.0466451 24.6624 -1.75679 -2.8561 0.0025 
1800 1 0.0303031 -0.0111008 0.0112813 0 0 0 0.228172 -0.507701 -0.304905 -0.260878 -0.00731476 -0.205915 6.75845 40.5827 30.9233 0.0025 
400 1 -0.0251915 -0.00163811 0.010489 0 0 0 0.114473 0.180221 -0.50799 0 0 -0.00160516 12.233 -48.8016 38.1046 0.0025 
32 1 -0.0160921 -0.00314659 0.00971655 0 0 0 0.299573 0.227642 0.0856127 -0.0305742 0.0062289 0.0442347 -19.9922 41.7978 -19.8444 0.0025 
695 1 0.0122662 0.000106344 0.00794741 0 0 0 0.0464452 0.387869 -0.451915 0 0 -0.00160516 -20.5679 4.87971 -4.57358 0.0025 
1049 1 0.0403291 -0.00533586 0.0110322 0 0 0 0.214037 -0.479531 -0.273312 0 0 -0.00160516 6.81287 19.7192 10.5178 0.0025 
47 1 -0.00791459 0.000822192 0.0115965 0 0 0 0.131755 -0.387677 -0.163133 0 0 -0.00160516 -1.60467 -24.763 -19.014 0.0025 
436 1 -0.0355724 0.00480131 0.00855986 0 0 0 0 0 -0.656911 0 0 -0.00160516 0 0 0 0.0025 
176 1 0.0124686 0.00569638 0.00875585 0 0 0 0.10615 -0.0863503 -0.193684 0 0 -0.00160516 -20.1604 -12.143 2.35635 0.0025 
519 1 -0.021138 0.00979368 0.00890608 0 0 0 0.245342 0.114334 -0.453812 0.0101755 -0.00935366 0.0199991 20.5906 -44.5365 42.792 0.0025 
815 1 0.0281579 0.00927582 0.00910509 0 0 0 -0.1101 0.0218079 -0.623938 0 0 -0.00160516 -5.68454 17.2634 -2.69229 0.0025 
243 1 -0.0299708 0.0103894 0.0138798 0 0 0 -0.0479181 0.04292 -0.231256 0 0 -0.00160516 -9.55163 -15.6904 -9.03113 0.0025 
1600 1 -0.0242148 0.0150111 0.00889148 0 0 0 -0.231366 0.119328 -0.129042 -0.0147978 -0.0835695 0.00881521 -36.8323 -12.6991 -10.3685 0.0025 
537 1 -0.00392425 0.0150934 0.0081756 0 0 0 0 0 -0.656911 0 0 -0.00160516 0 0 0 0.0025 
1402 1 0.00305326 0.0159238 0.00798632 0 0 0 -0.125854 0.077756 -0.477953 0 0 -0.00160516 -6.33141 6.30951 -7.1939 0.0025 
159 1 -0.0333174 0.0184169 0.00914669 0 0 0 -0.35128 -0.152733 -0.260229 0 0 -0.00160516 17.3859 -18.5431 8.41123 0.0025 
49 1 -0.0119975 0.019512 0.00873289 0 0 0 -0.307567 -0.275739 -0.514953 -0.000370748 -0.000366946 -0.00167553 -1.92223 8.56164 10.1789 0.0025 
850 1 -0.00195792 0.0200771 0.00986531 0 0 0 0.0657173 -0.0283754 0.10235 0 0 -0.00160516 29.9839 1.8326 -2.54245 0.0025 
276 1 -0.00863499 0.0231088 0.00955837 0 0 0 -0.219092 0.11825 -0.315737 0.000370748 0.000366946 -0.00153478 18.6833 -25.9932 34.1274 0.0025 
335 1 0.0282099 0.0239014 0.010461 0 0 0 0.238409 0.236569 -0.157461 2.04353e-05 3.96732e-05 -0.00159049 -28.0203 14.9056 -23.9152 0.0025 
654 1 -0.0251984 0.0312492 0.00869204 0 0 0 0 0 -0.656911 0 0 -0.00160516 0 0 0 0.0025 
300 1 -0.0104136 0.0286628 0.00986893 0 0 0 0 0 -0.656911 0 0 -0.00160516 0 0 0 0.0025 
1294 1 0.01553 0.0295039 0.00811801 0 0 0 0.228459 -0.0928724 -0.338852 -0.00827864 0.0228154 0.269165 0.850874 19.7786 0.802453 0.0025 
1498 1 -0.012309 0.0332038 0.00823233 0 0 0 0 0 -0.656911 0 0 -0.00160516 0 0 0 0.0025 
1668 1 -0.0140597 0.0386283 0.00761491 0 0 0 0 0 -0.656911 0 0 -0.00160516 0 0 0 0.0025 
597 1 0.00346154 0.0381732 0.00933986 0 0 0 0 0 -0.656911 0 0 -0.00160516 0 0 0 0.0025 
1176 1 -0.00738039 0.040752 0.00999435 0 0 0 -0.537218 0.0481398 -0.309362 -0.0153835 0.064241 0.00358741 0.478987 -32.239 1.86302 0.0025 
149 1 0.00180757 -0.0401905 0.0127494 0 0 0 0 0 -0.656911 0 0 -0.00160516 0 0 0 0.0025 
1617 1 0.0074893 -0.0373632 0.0110142 0 0 0 0 0 -0.656911 0 0 -0.00160516 0 0 0 0.0025 
1476 1 0.013021 -0.036335 0.0117204 0 0 0 0 0 -0.656911 0 0 -0.00160516 0 0 0 0.0025 
62 1 -0.0179302 -0.032865 0.0111612 0 0 0 0 0 -0.656911 0 0 -0.00160516 0 0 0 0.0025 
664 1 -0.0111935 -0.0286989 0.0126589 0 0 0 0 0 -0.656911 0 0 -0.00160516 0 0 0 0.0025 
802 1 -0.0271992 -0.0261981 0.013664 0 0 0 0 0 -0.656911 0 0 -0.00160516 0 0 0 0.0025 
1131 1 0.0110348 -0.0274672 0.0129855 0 0 0 0 0 -0.656911 0 0 -0.00160516 0 0 0 0.0025 
981 1 0.00283129 -0.0245648 0.0133712 0 0 0 0 0 -0.656911 0 0 -0.00160516 0 0 0 0.0025 
408 1 -0.0279432 -0.0210467 0.0130133 0 0 0 0 0 -0.656911 0 0 -0.00160516 0 0 0 0.0025 
778 1 -0.0103575 -0.0180962 0.0120283 0 0 0 0 0 -0.656911 0 0 -0.00160516 0 0 0 0.0025 
206 1 0.0117368 -0.0187655 0.0135922 0 0 0 0 0 -0.656911 0 0 -0.00160516 0 0 0 0.0025 
786 1 0.0267543 -0.021378 0.011412 0 0 0 0.0668122 -0.0133961 -0.59331 0.00256815 -0.000601187 0.000619182 2.19004 3.79029 -1.50202 0.0025 
882 1 -0.0364411 -0.0161683 0.0134609 0 0 0 0 0 -0.656911 0 0 -0.00160516 0 0 0 0.0025 
322 1 0.0153494 -0.0156553 0.0119116 0 0 0 -0.0213683 -0.114895 -0.612385 -0.0220006 -0.117317 0.0434348 4.98949 -2.07386 -2.95681 0.0025 
254 1 -0.0237444 -0.0122486 0.0130376 0 0 0 0 0 -0.656911 0 0 -0.00160516 0 0 0 0.0025 
1447 1 -0.0145392 -0.0110223 0.0128937 0 0 0 0 0 -0.656911 0 0 -0.00160516 0 0 0 0.0025 
633 1 0.00750419 -0.0144136 0.0138767 0 0 0 0.0573755 -0.138108 0.416555 0 0 -0.00160516 5.40335 51.3964 6.32415 0.0025 
316 1 0.024635 -0.0142582 0.0136685 0 0 0 -0.0927066 -0.0355656 0.333338 0 0 -0.00160516 -28.755 38.4929 -1.30578 0.0025 
917 1 0.0341083 -0.0107543 0.0142338 0 0 0 0.314332 0.0039245 -0.409232 0.260878 0.00731476 0.202705 -11.991 1.66098 15.1902 0.0025 
514 1 -0.0360774 -0.0111348 0.0114705 0 0 0 -0.05944 -0.336919 -0.451243 -0.00216116 -0.0544155 0.0156772 17.079 0.674405 2.76676 0.0025 
296 1 -0.019744 -0.007804 0.0126032 0 0 0 0 0 -0.656911 0 0 -0.00160516 0 0 0 0.0025 
1214 1 -0.00389886 -0.00810921 0.0133177 0 0 0 0 0 -0.656911 0 0 -0.00160516 0 0 0 0.0025 
562 1 0.00584715 -0.0070168 0.013505 0 0 0 0 0 -0.656911 0 0 -0.00160516 0 0 0 0.0025 
991 1 0.0174702 -0.00474278 0.013411 0 0 0 -0.106125 -0.167939 -0.156316 0 0 -0.00160516 16.5227 25.9632 -5.58932 0.0025 
271 1 -0.0384106 -0.00316738 0.0129084 0 0 0 -0.239054 0.264892 -0.375051 0 0 -0.00160516 -18.851 -9.75253 -6.81288 0.0025 
29 1 -0.0309391 -0.00124711 0.0139292 0 0 0 -0.499022 0.107204 -0.279611 0 0 -0.00160516 12.3712 -18.3635 21.5802 0.0025 
1337 1 -0.0130608 -0.00294706 0.0137184 0 0 0 0 0 -0.656911 0 0 -0.00160516 0 0 0 0.0025 
1606 1 0.0281706 -0.00190162 0.0132073 0 0 0 0.150029 -0.268862 -0.294426 0 0 -0.00160516 -1.07357 -1.84892 -0.960029 0.0025 
463 1 0.0379081 0.000399321 0.0140672 0 0 0 -0.0476043 0.119241 -0.456972 0 0 -0.00160516 -10.6826 -4.85124 0.349369 0.0025 
1515 1 -0.0167553 0.00348417 0.0132046 0 0 0 0 0 -0.656911 0 0 -0.00160516 0 0 0 0.0025 
844 1 0.0328578 0.000405096 0.0131765 0 0 0 0 0 -0.656911 0 0 -0.00160516 0 0 0 0.0025 
1107 1 0.0253438 0.00538751 0.0133269 0 0 0 -0.114063 0.449035 -0.115228 0 0 -0.00160516 -31.3843 -13.8489 4.87064 0.0025 
91 1 -0.0257462 0.00740487 0.0126258 0 0 0 -0.00704447 -0.0506273 -0.644604 0 0 -0.00160516 0.972017 -5.07373 -0.792812 0.0025 