ITEM: TIMESTEP
2400
ITEM: NUMBER OF ATOMS
1800
ITEM: BOX BOUNDS mm mm mm
-0.05 0.05
-0.05 0.05
0 0.15
ITEM: ATOMS id type x y z ix iy iz vx vy vz fx fy fz omegax omegay omegaz radius 
76 1 0.00391489 -0.0331737 0.00314469 0 0 0 -0.312062 -0.224958 -0.0693932 0 0 -0.00160516 -56.2778 -3.4022 -28.6149 0.0025 
10 1 0.0147263 -0.0330322 0.00319244 0 0 0 0.179854 0.337553 -0.388987 0 0 -0.00160516 116.731 -60.3336 -8.17811 0.0025 
235 1 -0.0259902 -0.0316993 0.004294 0 0 0 -0.174816 -0.422602 0.306299 -0.077195 0.0302435 -0.0234257 -4.05661 35.0178 19.1123 0.0025 
182 1 -0.00776105 -0.0313238 0.00241788 0 0 0 -0.0877568 -0.379192 0.147306 -0.00235222 0.00726008 0.151027 93.5635 -55.3886 -29.9923 0.0025 
71 1 0.0274345 -0.0313556 0.00267987 0 0 0 0.408241 -0.197792 0.296224 0 0 -0.00160516 -0.889986 73.2902 -28.7362 0.0025 
444 1 -0.0135718 -0.0259087 0.00284542 0 0 0 -0.216839 0.235251 0.479545 0 0 -0.00160516 7.69513 -56.8616 -5.92431 0.0025 
196 1 0.00665741 -0.0276413 0.00362346 0 0 0 0.0424619 0.0669515 0.400251 0 0 -0.00160516 -32.1895 26.5076 14.7687 0.0025 
1665 1 0.0311525 -0.0274665 0.00424142 0 0 0 0.249725 -0.120129 0.348039 0 0 -0.00160516 -24.6759 -31.6208 8.69968 0.0025 
1155 1 0.036922 -0.0218104 0.00563028 0 0 0 0.446051 0.267707 0.56634 0 0 -0.00160516 -43.6294 71.6837 18.3485 0.0025 
1036 1 -0.0366403 -0.0204826 0.00320259 0 0 0 -0.14447 0.0168416 0.488788 0 0 -0.00160516 -6.98208 -39.3641 -4.25766 0.0025 
1532 1 -0.0198708 -0.0209053 0.00452168 0 0 0 -0.262713 0.145754 -0.167761 -0.302754 0.149531 -0.401714 49.9915 49.1687 -29.3205 0.0025 
364 1 0.0144435 -0.0200816 0.00270891 0 0 0 0.186513 0.101508 -0.151139 0 0 -0.00160516 84.0864 -76.9882 70.2473 0.0025 
1002 1 -0.0265045 -0.0165767 0.00322973 0 0 0 -0.0754899 -0.0710321 0.267224 0 0 -0.00160516 -76.7087 -56.719 15.7693 0.0025 
1478 1 0.00145335 -0.0167482 0.00330262 0 0 0 0.165175 0.414431 0.376074 0 0 -0.00160516 10.1231 -23.0266 31.3547 0.0025 
960 1 0.0209677 -0.01565 0.00320784 0 0 0 -0.0918834 0.118348 0.465293 0 0 -0.00160516 -46.4721 -35.5383 -11.9014 0.0025 
704 1 -0.0131899 -0.0134984 0.00254423 0 0 0 0.111409 0.155892 -0.127503 0 0 -0.00160516 51.9703 21.7972 -15.962 0.0025 
1490 1 -0.00443569 -0.0118725 0.00331263 0 0 0 -0.0824354 0.0380143 0.437467 0 0 -0.00160516 -11.5272 -24.7605 -6.04845 0.0025 
1085 1 0.0381173 -0.0115138 0.00465438 0 0 0 0.19868 -0.0219727 0.204285 0 0 -0.00160516 38.8889 18.3471 -7.06687 0.0025 
1411 1 -0.020218 -0.00829284 0.00387493 0 0 0 0.209322 0.368978 0.346679 0 0 -0.00160516 -43.3893 47.8838 -28.3844 0.0025 
1693 1 -0.0153554 -0.00881018 0.00594083 0 0 0 0.24536 0.0141092 0.65258 0 0 -0.00160516 1.89955 -11.4465 -4.75113 0.0025 
1226 1 0.0433564 -0.0100556 0.00398733 0 0 0 0.630796 -0.0883197 0.0818317 0.0651284 -0.0572516 -0.276293 52.6266 11.6843 -23.5421 0.0025 
267 1 -0.0336806 -0.000652711 0.00233651 0 0 0 0.215427 -0.116682 0.0247859 -0.0217807 -0.00147548 0.435007 54.398 -2.01408 -2.03531 0.0025 
1016 1 -0.0191492 -0.00045931 0.00269151 0 0 0 -0.244645 0.476091 -0.0198363 0 0 -0.00160516 -41.0494 34.4797 17.1214 0.0025 
251 1 0.0317649 -0.00190296 0.00375389 0 0 0 -0.0126054 0.0791558 0.139389 -0.0143584 -0.0270864 -0.0470267 -23.864 0.25022 0.951615 0.0025 
1557 1 0.0241314 0.00248449 0.00270956 0 0 0 -0.0242794 0.137108 -0.317154 0 0 -0.00160516 -32.0797 -33.5047 7.67945 0.0025 
202 1 -0.0169496 0.00540944 0.00324501 0 0 0 -0.00360053 -0.0907216 -0.207835 -0.0173676 0.123492 -0.325882 -13.7567 11.7308 31.1479 0.0025 
1021 1 0.012998 0.00459668 0.0026081 0 0 0 0.185932 0.247924 -0.335578 -0.0197444 0.179847 -0.0217149 -21.3314 -27.7404 -19.3884 0.0025 
1494 1 0.0181508 0.00508029 0.00276623 0 0 0 -0.604669 -0.0127819 -0.155361 0 0 -0.00160516 3.91018 -43.7303 14.4277 0.0025 
473 1 0.0311348 0.00310195 0.00410658 0 0 0 -0.270868 0.274763 -0.431849 0 0 -0.00160516 44.4529 41.818 13.8297 0.0025 
494 1 -0.0349026 0.00933535 0.00333427 0 0 0 -0.036517 0.372703 0.23705 0 0 -0.00160516 6.08118 -0.339115 11.8975 0.0025 
516 1 -0.02384 0.00799127 0.00365888 0 0 0 -0.0710759 -0.392497 0.465147 0 0 -0.00160516 -6.40748 -3.21806 9.80543 0.0025 
447 1 -0.0315702 0.0130498 0.00275474 0 0 0 0.511178 -0.160993 -0.141466 -0.0836656 0.0628817 -0.160213 -16.6269 -42.818 -0.093482 0.0025 
565 1 -0.0164097 0.012343 0.00355285 0 0 0 -0.182593 0.0421173 -0.227161 0 0 -0.00160516 10.4588 -32.2435 -13.1532 0.0025 
685 1 -0.00586939 0.0126714 0.00301777 0 0 0 0.286866 0.0480101 -0.30431 0 0 -0.00160516 51.1988 -64.0378 13.0686 0.0025 
1732 1 0.00427971 0.0119015 0.0050417 0 0 0 -0.0837504 -0.255533 0.231933 0 0 -0.00160516 44.047 12.4165 19.4434 0.0025 
779 1 0.0228127 0.010555 0.00259235 0 0 0 -0.363374 -0.117337 0.258876 0 0 -0.00160516 55.9074 -32.4957 -25.2324 0.0025 
1245 1 1.43002e-05 0.0171933 0.00270266 0 0 0 -0.302124 -0.0304639 -0.255683 0 0 -0.00160516 3.64446 -22.2266 -11.3867 0.0025 
1344 1 0.0402871 0.0140812 0.00386224 0 0 0 0.401601 -0.0542622 0.221717 0 0 -0.00160516 4.22985 -2.65692 -17.219 0.0025 
1306 1 -0.0252246 0.0198239 0.00329424 0 0 0 0.0207423 -0.138047 0.0880273 0 0 -0.00160516 -45.3675 -79.9411 -0.0406012 0.0025 
679 1 -0.0192353 0.0209345 0.00367738 0 0 0 0.00458977 0.050733 0.443635 0 0 -0.00160516 -11.0675 -9.72663 -20.2793 0.0025 
708 1 -0.00307698 0.0220145 0.00453595 0 0 0 -0.216197 0.292826 0.547913 0 0 -0.00160516 -32.5188 -7.71335 11.8007 0.0025 
756 1 -0.03419 0.0223699 0.00315193 0 0 0 -0.467335 0.0897295 0.404292 0 0 -0.00160516 5.30183 -61.2126 10.3958 0.0025 
1163 1 -0.0129834 0.0234362 0.00348938 0 0 0 0.301001 0.150501 0.626856 0 0 -0.00160516 -9.60587 44.9526 -34.7057 0.0025 
1685 1 -0.0239047 0.0264812 0.00278948 0 0 0 -0.185106 0.347361 0.0235782 0 0 -0.00160516 -11.229 -0.258471 26.9226 0.0025 
1799 1 0.0122562 0.024579 0.00350166 0 0 0 0.321871 -0.394701 0.319879 0 0 -0.00160516 52.581 2.61477 2.34339 0.0025 
1539 1 -0.0283134 0.0323941 0.00507357 0 0 0 -0.00390833 0.607277 0.230926 0 0 -0.00160516 -17.9389 -50.7964 -3.29542 0.0025 
258 1 -0.0195252 0.0297914 0.00299854 0 0 0 -0.412978 0.274849 -0.00785365 0 0 -0.00160516 30.185 -2.48845 -28.4498 0.0025 
1058 1 0.00851671 0.0283695 0.0032571 0 0 0 0.163278 -0.0185618 0.144496 6.6233e-05 0.000149251 -0.00154992 -28.1518 -18.8167 -25.6093 0.0025 
361 1 0.0181487 0.0300006 0.00465271 0 0 0 0.400603 0.0390965 -0.428428 -0.00444823 -0.0679353 -0.000409469 -4.57964 20.6508 6.90183 0.0025 
1457 1 0.0183882 0.0349321 0.00479825 0 0 0 0.0136322 0.16844 0.612978 0.00444823 0.0679353 -0.00280085 7.80341 -0.463081 2.93588 0.0025 
1293 1 -0.0190686 0.0348492 0.0050825 0 0 0 -0.336184 -0.25364 0.399788 0 0 -0.00160516 -13.5903 18.0131 1.12664e-14 0.0025 
193 1 -0.00703099 0.0424961 0.00335615 0 0 0 0.0449308 0.407401 -0.0726666 -0.147093 0.0841494 0.0203037 14.3927 -22.7031 -5.16464 0.0025 
823 1 0.00707767 -0.0464193 0.0062812 0 0 0 -0.283942 0.590561 -0.0389023 0 0 -0.00160516 -18.8298 22.3937 37.7365 0.0025 
1168 1 -0.00307606 -0.0433903 0.0054882 0 0 0 0.107556 -0.243061 0.29345 0 0 -0.00160516 2.73345 1.20956 -5.74084e-15 0.0025 
817 1 0.0141814 -0.0426232 0.00517827 0 0 0 0.0881438 -0.283828 -0.33618 0 0 -0.00160516 18.1418 -0.889547 1.67094 0.0025 
1708 1 -0.00992111 -0.0381684 0.00511363 0 0 0 -0.30246 -0.431348 -0.25676 0 0 -0.00160516 29.7609 -1.91626 19.1083 0.0025 
187 1 0.0197236 -0.038784 0.00586758 0 0 0 -0.120081 -0.282333 0.365824 0 0 -0.00160516 -4.87937 2.07529 -2.69079e-14 0.0025 
566 1 -0.021504 -0.0332233 0.00565905 0 0 0 -0.0933826 -0.00794889 0.392332 0.077195 -0.0302435 0.0202154 4.75841 5.59275 -4.52063 0.0025 
1768 1 -0.0312229 -0.030958 0.00472086 0 0 0 -0.0417339 -0.351743 0.106727 0 0 -0.00160516 -9.60306 -17.7958 -8.68143 0.0025 
1278 1 -0.0118544 -0.0317118 0.0054705 0 0 0 0.40755 -0.163025 -0.215593 0 0 -0.00160516 120.783 -14.2434 -6.57587 0.0025 
1443 1 -0.00302557 -0.0324747 0.00496754 0 0 0 -0.168463 -0.136165 0.268277 0 0 -0.00160516 12.9721 -59.2606 8.74662 0.0025 
1740 1 0.020229 -0.0275474 0.00354198 0 0 0 0.332393 0.271143 -0.154298 0 0 -0.00160516 33.63 -40.5405 9.53048 0.0025 
1585 1 -0.0351972 -0.0262189 0.0047469 0 0 0 -0.21747 -0.19464 -0.216978 0 0 -0.00160516 -62.8893 3.74056 -32.6817 0.0025 
1418 1 -0.0233929 -0.0263706 0.00522599 0 0 0 0.518952 0.0633232 -0.304743 0 0 -0.00160516 0.668068 -9.07328 3.70585 0.0025 
1568 1 -0.00595423 -0.0240204 0.00511286 0 0 0 0.375562 0.299546 0.138934 0 0 -0.00160516 -27.6172 -18.5095 -58.4031 0.0025 
15 1 0.000333657 -0.0289687 0.00648159 0 0 0 -0.0908978 -0.321751 0.0660595 0 0 -0.00160516 -7.97149 -4.4033 33.6568 0.0025 
886 1 0.014406 -0.0271814 0.00464876 0 0 0 -0.0472683 -0.326809 -0.272877 0.225666 0.13915 -0.295575 63.7074 40.8257 7.9891 0.0025 
9 1 0.025901 -0.0268906 0.0064785 0 0 0 0.385595 0.0346462 -0.180531 0 0 -0.00160516 -51.0513 -31.8256 -22.5164 0.0025 
603 1 -0.00156137 -0.0213936 0.00386708 0 0 0 0.202977 -0.277864 -0.0548082 0 0 -0.00160516 28.5674 -49.9507 -38.6674 0.0025 
740 1 0.00993297 -0.0237598 0.00255567 0 0 0 -0.0348517 -0.217275 -0.32656 0 0 -0.00160516 -37.1123 18.6588 -2.17756 0.0025 
342 1 0.0278673 -0.0221491 0.00271687 0 0 0 0.000947539 -0.104318 0.63543 0 0 -0.00160516 16.6912 7.37592 -6.7859 0.0025 
1679 1 -0.0314868 -0.0186247 0.00352152 0 0 0 -0.0264641 -0.0685373 -0.446746 0 0 -0.00160516 -11.7767 39.5053 3.62199 0.0025 
567 1 -0.0253487 -0.0215293 0.00310954 0 0 0 0.173097 -0.619965 0.574913 0 0 -0.00160516 6.32445 30.937 12.451 0.0025 
1751 1 -0.00647447 -0.0183287 0.00488688 0 0 0 -0.128768 0.693063 -0.136292 0 0 -0.00160516 -63.4391 -35.5442 -55.53 0.0025 
1303 1 0.0104125 -0.0172952 0.00386827 0 0 0 -0.903545 -0.490996 -0.343512 0.0007426 -0.0052926 -0.00208399 7.76051 -31.833 -45.5874 0.0025 
186 1 -0.0434792 -0.0111642 0.00590029 0 0 0 -0.241243 0.0265948 0.465549 0 0 -0.00160516 -7.57935 -68.7529 6.33121e-17 0.0025 
693 1 -0.0330689 -0.013394 0.00367485 0 0 0 0.0744899 -0.288917 -0.416683 -0.0596887 -0.019153 -0.00610032 -5.18699 -70.6527 5.5346 0.0025 
420 1 -0.0284039 -0.0117632 0.0038171 0 0 0 -0.0348597 -0.141981 -0.473462 0.0596887 0.019153 0.00289001 1.52173 -9.32478 6.2498 0.0025 
54 1 -0.0227677 -0.0131544 0.00523597 0 0 0 0.245012 -0.449071 -0.156888 0 0 -0.00160516 2.27466 -31.3205 23.7699 0.0025 
311 1 0.0099691 -0.0123544 0.00433905 0 0 0 -0.19517 0.199727 -0.325678 -0.0007426 0.0052926 -0.00112633 -47.1721 36.4289 -47.1998 0.0025 
368 1 0.0149251 -0.0128303 0.00288022 0 0 0 0.103049 0.138847 0.69136 0 0 -0.00160516 -56.9448 42.1634 -11.9028 0.0025 
1392 1 0.0297107 -0.0119269 0.00314288 0 0 0 0.185639 0.00170555 -0.397946 0 0 -0.00160516 47.7494 -45.3745 12.8238 0.0025 
1626 1 0.0209793 -0.00824416 0.00372796 0 0 0 -0.266091 -0.0615355 -0.163243 0 0 -0.00160516 6.07867 -19.9983 41.6235 0.0025 
744 1 -0.0313501 -0.0066174 0.004125 0 0 0 0.382925 -0.171195 -0.144637 0 0 -0.00160516 -37.9909 -7.09428 -36.8822 0.0025 
1358 1 -0.0113704 -0.00534285 0.00237313 0 0 0 0.242397 -0.161493 0.087809 -0.0116728 0.00916967 0.29527 14.0805 33.0379 11.4013 0.0025 
1145 1 -0.00269318 -0.00459093 0.00453844 0 0 0 0.233141 -0.0364695 -0.403237 -0.0288306 0.0116466 -0.00310687 26.9089 14.4817 4.15743 0.0025 
785 1 0.00183508 -0.00657551 0.00497911 0 0 0 0.0979052 -0.517994 0.30434 0.0288306 -0.0116466 -0.000103447 21.984 -61.9458 -13.4618 0.0025 
1711 1 0.0285277 -0.00574459 0.00380927 0 0 0 0.0198548 0.203606 -0.0850224 0 0 -0.00160516 1.87064 6.13388 21.5749 0.0025 
836 1 0.0373122 -0.00503245 0.00543906 0 0 0 -0.0613801 -0.130749 0.377373 0 0 -0.00160516 19.8832 -28.3126 -29.2185 0.0025 
517 1 -0.0263129 -0.00365811 0.00308467 0 0 0 -0.302352 -0.192965 -0.202976 0 0 -0.00160516 -18.9314 3.44766 -0.0743641 0.0025 
864 1 -0.00540166 -5.42924e-05 0.00295247 0 0 0 -0.0381909 0.315215 -0.42521 0 0 -0.00160516 22.2453 -10.1927 41.3248 0.0025 
1109 1 0.000552108 -0.000371662 0.00840925 0 0 0 -0.0527346 -0.0836686 0.499954 0 0 -0.00160516 12.7951 41.9925 -26.859 0.0025 
1153 1 0.00706114 -0.00347525 0.00422752 0 0 0 -0.291335 0.142039 -0.652062 -0.000486557 0.016785 -0.0268572 1.80004 12.4286 21.3363 0.0025 
645 1 0.0133202 -0.000260089 0.00302316 0 0 0 -0.404569 0.161668 -0.614045 0.0197444 -0.179847 0.0185046 17.2318 -18.4076 -16.4596 0.0025 
1643 1 0.0191407 -0.00040133 0.00540725 0 0 0 -0.516223 0.0627276 -0.133998 -0.155408 0.00895769 -0.261756 26.9944 13.7638 12.9256 0.0025 
1027 1 0.0469939 -0.000392823 0.00771401 0 0 0 0.43599 0.219328 0.528935 0 0 -0.00160516 -39.2515 77.6607 -9.58043 0.0025 
695 1 0.010208 0.00122944 0.00673483 0 0 0 0.104139 -0.0316312 0.302378 0 0 -0.00160516 -33.5276 -47.018 -9.98242 0.0025 
1497 1 0.0359894 0.00139192 0.00362313 0 0 0 -0.202092 0.159126 -0.208568 0 0 -0.00160516 26.2736 0.644011 -7.79827 0.0025 
436 1 -0.0354349 0.00391835 0.00500694 0 0 0 -0.480463 0.110728 -0.281372 0 0 -0.00160516 29.3275 -33.6674 46.4658 0.0025 
1484 1 -0.0311723 0.0068951 0.00706913 0 0 0 -0.223654 -0.0270154 0.13307 -0.0169189 -0.056449 -0.00221808 -4.91652 10.8622 -18.5974 0.0025 
831 1 -0.0088727 0.00454247 0.00282558 0 0 0 -0.12236 0.154742 -0.53066 0 0 -0.00160516 17.2429 -19.3546 -20.0111 0.0025 
315 1 0.00676728 0.00416584 0.00326072 0 0 0 0.162036 0.274116 -0.59619 0 0 -0.00160516 -76.6941 4.92662 -34.7932 0.0025 
122 1 0.0432275 0.00578328 0.0043418 0 0 0 0.729026 -0.0616212 0.0699674 0 0 -0.00160516 19.1303 -17.1933 15.1168 0.0025 
949 1 -0.00364384 0.00721391 0.00240055 0 0 0 0.294449 -0.351378 0.240584 -0.00779642 0.00644124 0.200656 37.3184 -8.26237 10.6002 0.0025 
815 1 0.0275022 0.00912717 0.00386791 0 0 0 0.0984956 -0.136669 -0.608975 0 0 -0.00160516 -0.36104 28.5828 0.341386 0.0025 
330 1 0.0392697 0.00975414 0.00688348 0 0 0 0.0993933 -0.0087404 0.470423 0 0 -0.00160516 36.8772 -19.3412 31.1406 0.0025 
294 1 6.47655e-05 0.00996284 0.00783501 0 0 0 -0.0452764 -0.399507 0.441221 0.109567 0.000184635 -0.0521649 -10.5981 -13.2588 27.3489 0.0025 
327 1 0.0345134 0.0132231 0.00741039 0 0 0 -0.157569 -0.55892 -0.163203 0 0 -0.00160516 -26.6109 -12.2379 -5.84337 0.0025 
1231 1 -0.0426181 0.016941 0.0053312 0 0 0 -0.559955 0.197288 -0.138042 0 0 -0.00160516 -13.5484 -38.454 3.46512e-14 0.0025 
430 1 0.00913657 0.0144092 0.00401268 0 0 0 0.426248 0.0603882 -0.0743934 0 0 -0.00160516 5.56101 -4.24119 1.71006 0.0025 
1279 1 0.0280186 0.0138447 0.00738762 0 0 0 0.304664 -0.127889 0.191367 0 0 -0.00160516 -20.1455 -13.3333 -1.38169 0.0025 
49 1 -0.0117531 0.0174982 0.00510439 0 0 0 0.233105 -0.406296 -0.504877 0 0 -0.00160516 -25.5189 -13.8281 -21.5228 0.0025 
1789 1 0.0370631 0.0231557 0.00387274 0 0 0 0.240634 0.545254 -0.331413 0.214109 -0.0204034 -0.0509617 -32.5339 5.25847 11.8239 0.0025 
1320 1 -0.0377726 0.0258395 0.0058664 0 0 0 -0.42953 0.293221 0.556172 0 0 -0.00160516 -26.5769 -46.1955 -3.20574 0.0025 
387 1 0.00397037 0.0222309 0.00524719 0 0 0 -0.0392739 -0.002487 -0.344553 0 0 -0.00160516 -6.62881 -17.4719 -15.6469 0.0025 
1753 1 0.0199027 0.0220807 0.00431874 0 0 0 0.0782631 0.0991382 -0.0175778 -0.00295142 0.00715716 -0.0184439 58.6397 14.5589 25.0495 0.0025 
1400 1 0.0249054 0.0231881 0.00335344 0 0 0 0.323864 0.317257 -0.251524 0 0 -0.00160516 33.6923 -21.9637 2.16097 0.0025 
728 1 0.0323622 0.0234172 0.00511344 0 0 0 0.186312 0.0615334 -0.0190858 -0.214109 0.0204034 0.0477514 -25.0849 -39.2351 11.8333 0.0025 
1412 1 -0.00654841 0.0256602 0.0025177 0 0 0 0.206634 -0.150135 0.502681 0 0 -0.00160516 43.8412 -6.85358 1.50787 0.0025 
218 1 0.0287839 0.028268 0.00333829 0 0 0 0.400582 0.105282 -0.855439 0 0 -0.00160516 -64.6874 -62.1706 20.1679 0.0025 
484 1 0.0364155 0.0279745 0.00745354 0 0 0 0.141377 0.121906 0.412501 0 0 -0.00160516 -42.2366 48.9823 0.00240183 0.0025 
1520 1 -0.00516419 0.0316438 0.00390678 0 0 0 0.0691324 0.000622155 -0.455909 0.00331018 -0.0583966 -0.0562614 56.4072 29.4309 6.2043 0.0025 
1522 1 0.0105375 0.0325743 0.0050515 0 0 0 0.0318735 0.330478 -0.236067 -0.0598227 -0.103868 0.0518991 14.3273 9.44679 6.00942 0.0025 
1498 1 -0.0129258 0.0330444 0.00257988 0 0 0 -0.0824389 0.00676006 0.862922 0 0 -0.00160516 -5.26843 -53.2455 -0.0156403 0.0025 
999 1 0.00702527 0.0354008 0.00268735 0 0 0 0.0363706 0.0497824 -0.694902 0 0 -0.00160516 -18.0532 3.16226 4.78977 0.0025 
1668 1 -0.0126495 0.0396922 0.00282968 0 0 0 0.336184 0.25364 -0.549013 0 0 -0.00160516 -13.5903 18.0131 1.12664e-14 0.0025 
1572 1 -0.00293494 0.0399411 0.00257024 0 0 0 -0.369066 0.237804 -0.376491 0.147093 -0.0841494 -0.023514 19.6415 30.6988 -14.6132 0.0025 
228 1 0.012871 0.0365094 0.00326585 0 0 0 0.0224306 0.0390593 0.648769 0.0597565 0.103719 -0.0551647 1.93815 -1.38728 -0.522607 0.0025 
658 1 0.0261723 0.0387997 0.00756351 0 0 0 0.218394 0.244497 0.0987099 0 0 -0.00160516 13.2642 -11.8481 -4.46227e-16 0.0025 
947 1 0.0112914 0.0424389 0.00447758 0 0 0 0.353295 0.116523 0.0595678 0 0 -0.00160516 -65.9765 -30.6938 13.1677 0.0025 
1181 1 0.00436883 0.0472771 0.00474646 0 0 0 0.312641 0.683728 -0.311134 0 0 -0.00160516 11.1574 10.5449 24.9978 0.0025 
1749 1 -0.0130155 -0.0443786 0.00688805 0 0 0 -0.0396642 -0.451939 -0.16602 0 0 -0.00160516 -29.9805 2.63122 1.7734e-15 0.0025 
149 1 0.00180757 -0.0401905 0.0071802 0 0 0 0 0 -0.735391 0 0 -0.00160516 0 0 0 0.0025 
194 1 -0.0213966 -0.0390456 0.00591846 0 0 0 -0.537535 -0.420072 -0.587489 0 0 -0.00160516 -10.5536 36.8486 -15.0806 0.0025 
523 1 -0.0058646 -0.0359592 0.0114947 0 0 0 -0.161876 0.559663 0.319517 0 0 -0.00160516 -41.1321 -19.6563 5.29213 0.0025 
1617 1 0.0074893 -0.0373632 0.00544498 0 0 0 0 0 -0.735391 0 0 -0.00160516 0 0 0 0.0025 
1476 1 0.0125243 -0.037296 0.00760965 0 0 0 -0.261188 -0.505302 0.0300873 0 0 -0.00160516 41.5852 -19.6469 1.22147 0.0025 
62 1 -0.0167741 -0.0357459 0.00738524 0 0 0 0.330447 -0.625271 -0.0545557 0 0 -0.00160516 64.2061 2.78091 -9.05799 0.0025 
1030 1 0.00650582 -0.0319462 0.00814404 0 0 0 -0.295558 0.0464246 -0.387327 -0.0314874 -0.00317099 -0.0346622 13.2544 81.9608 -16.3287 0.0025 
1033 1 0.0262873 -0.033337 0.00741518 0 0 0 0.35963 -0.311157 0.360031 0 0 -0.00160516 -66.3209 0.175166 7.86694 0.0025 
1483 1 -0.0185782 -0.0278933 0.00849319 0 0 0 0.0538122 0.195759 0.332959 0 0 -0.00160516 10.4544 -1.53795 3.788 0.0025 
664 1 -0.0118529 -0.02926 0.0100981 0 0 0 -0.597762 -0.350623 -0.0964992 0 0 -0.00160516 8.05654 20.3172 33.602 0.0025 
75 1 0.0198613 -0.0306713 0.00854834 0 0 0 0.112677 -0.128299 0.0411298 0 0 -0.00160516 34.8796 0.64749 -2.18998 0.0025 
1119 1 0.0326272 -0.0304126 0.0104081 0 0 0 0.081739 -0.0687022 0.261827 0 0 -0.00160516 -1.70504 -2.02858 2.28055e-16 0.0025 
359 1 -0.00659828 -0.0256863 0.0102161 0 0 0 0.00316952 0.294687 0.0254795 0 0 -0.00160516 85.1767 -37.228 1.39694 0.0025 
1131 1 0.011488 -0.0287286 0.00814237 0 0 0 -0.0855609 -0.300409 -0.386129 -0.218126 -0.125283 0.277509 1.43278 -11.7384 -20.1218 0.0025 
1727 1 -0.0172274 -0.0224762 0.00816328 0 0 0 -0.170727 -0.264951 0.0873121 0.302754 -0.149531 0.398504 -25.8441 -38.1657 -19.2301 0.0025 
1770 1 -0.0124176 -0.0234812 0.00721779 0 0 0 0.380446 0.273496 0.106802 0 0 -0.00160516 11.2498 -80.3068 24.2093 0.0025 
1471 1 -0.00137093 -0.0235558 0.00852059 0 0 0 0.309543 -0.218539 -0.0622573 0.0022902 -0.266397 -0.0147838 -9.76432 0.566989 20.5535 0.0025 
1001 1 0.0101937 -0.0223408 0.0103421 0 0 0 0.103112 0.18876 0.406096 0 0 -0.00160516 -68.6024 21.0995 6.2268 0.0025 
1256 1 0.0209936 -0.0233087 0.00784611 0 0 0 -0.126312 0.338137 -0.190511 -2.84642e-06 -0.000207088 -0.00163757 22.7192 -47.681 -9.99067 0.0025 
924 1 -0.0350409 -0.0210921 0.00836856 0 0 0 -0.111366 -0.368964 -0.505965 0 0 -0.00160516 -30.2934 23.9757 31.2991 0.0025 
408 1 -0.0279432 -0.0210467 0.00744406 0 0 0 0 0 -0.735391 0 0 -0.00160516 0 0 0 0.0025 
288 1 0.0212848 -0.018396 0.00872774 0 0 0 0.34574 0.210346 0.0326414 2.84642e-06 0.000207088 -0.00157275 -43.1071 -48.7833 26.5193 0.0025 
1123 1 -0.0158099 -0.0176787 0.0110602 0 0 0 0.291296 0.0401195 0.192669 0 0 -0.00160516 -39.3973 -80.2387 -32.306 0.0025 
1391 1 -0.00163746 -0.018715 0.00867012 0 0 0 -0.0773307 0.0604402 -0.232358 -0.0022902 0.266397 0.0115734 -24.9216 26.436 32.0371 0.0025 
1004 1 0.00925389 -0.0172729 0.00990269 0 0 0 0.382588 0.144042 0.0389398 0 0 -0.00160516 -29.9093 24.4675 34.7629 0.0025 
322 1 0.0160556 -0.016526 0.00783552 0 0 0 -0.385323 0.182047 -0.508765 0 0 -0.00160516 6.70824 -27.2328 -0.448764 0.0025 
1383 1 0.0324266 -0.0200792 0.00739326 0 0 0 0.0798167 -0.706956 -0.00849628 0 0 -0.00160516 -13.1312 -26.9753 -29.9117 0.0025 
587 1 0.0388061 -0.0153175 0.0104134 0 0 0 0 0 0.336343 0 0 -0.00160516 0 0 0 0.0025 
514 1 -0.0372266 -0.010986 0.00871952 0 0 0 0.00493896 0.0228493 -0.57435 0 0 -0.00160516 -21.813 -55.6802 -20.6753 0.0025 
1491 1 -0.00785709 -0.0110821 0.00802408 0 0 0 0.459928 -0.00411443 -0.160945 0 0 -0.00160516 -0.273397 -30.5615 -1.17106e-14 0.0025 
116 1 0.00288944 -0.0135079 0.00991524 0 0 0 0.0290636 -0.0294762 0.0551758 0 0 -0.00160516 26.6251 -55.512 1.93293 0.0025 
373 1 0.0175411 -0.010649 0.0104206 0 0 0 0.382801 -0.0954936 -0.187796 0.086414 0.0570406 -0.116503 1.1424 -1.77194 5.13645 0.0025 
656 1 0.0246654 -0.01392 0.0109447 0 0 0 -0.171245 0.00395284 0.251247 0 0 -0.00160516 -35.1523 30.6827 -26.426 0.0025 
1800 1 0.0312811 -0.0134788 0.00809522 0 0 0 0.125386 -0.187356 -0.15969 -0.0754374 -0.0547131 -0.00966989 -23.0112 32.6101 22.7761 0.0025 
1754 1 -0.0270055 -0.0075214 0.00826142 0 0 0 -0.202645 0.0840694 -0.0196187 0 0 -0.00160516 29.8669 -36.6953 -3.80404 0.0025 
296 1 -0.0204068 -0.00916203 0.00929755 0 0 0 -0.21278 -0.266683 -0.269669 0 0 -0.00160516 25.3752 -19.918 -31.6672 0.0025 
53 1 0.0122293 -0.00826259 0.00779115 0 0 0 0.43175 0.324114 -0.0267415 0 0 -0.00160516 -91.7598 18.5383 -27.2016 0.0025 
1288 1 0.02394 -0.00782235 0.0104519 0 0 0 -0.174771 0.00867033 0.377012 0 0 -0.00160516 57.3764 36.8699 25.8652 0.0025 
1390 1 0.0351535 -0.0104992 0.00872199 0 0 0 -0.0784406 0.0544847 0.2263 0.0754374 0.0547131 0.00645958 27.9519 -49.4684 9.13013 0.0025 
1049 1 0.0420347 -0.00916547 0.00856224 0 0 0 0.14831 -0.416778 -0.0598661 -0.0651284 0.0572516 0.273083 10.4588 5.79441 14.3328 0.0025 
792 1 -0.035515 -0.00615337 0.00786777 0 0 0 -0.366777 0.11576 -0.225944 -0.0839335 -0.00105628 -0.0969944 6.32158 -22.4166 -11.1305 0.0025 
133 1 -0.0211718 -0.00310396 0.00718156 0 0 0 0.0871759 0.189214 -0.512121 0 0 -0.00160516 6.18979 -20.8398 1.48117 0.0025 
562 1 0.00738781 -0.00622798 0.00834093 0 0 0 0.246362 -0.223204 -0.134621 0.000486557 -0.016785 0.0236468 -4.14352 39.3094 12.2875 0.0025 
550 1 -0.0454075 -0.000117872 0.0103757 0 0 0 -0.379238 0.0795522 0.254728 0 0 -0.00160516 3.24316 17.9787 5.62579 0.0025 
874 1 -0.0388162 0.000498462 0.00744015 0 0 0 -0.483334 0.259013 0.120788 0 0 -0.00160516 -37.9283 -43.5917 -6.21349 0.0025 
1043 1 -0.0310421 -0.00165805 0.00851361 0 0 0 0.00282925 -0.0893827 0.0956983 0 0 -0.00160516 -9.79925 -11.6461 -10.7582 0.0025 
400 1 -0.0253528 0.000928366 0.00660781 0 0 0 -0.0954071 0.399041 -0.490147 0 0 -0.00160516 3.48434 -59.2155 42.5684 0.0025 
32 1 -0.0160484 -0.00186089 0.00714803 0 0 0 0.566703 0.0930407 0.305994 0 0 -0.00160516 39.6288 56.8946 -54.5786 0.0025 
1515 1 -0.016754 0.00347479 0.00766032 0 0 0 0.0149176 -0.105989 -0.455193 0.0173676 -0.123492 0.322672 14.2855 -2.36685 -1.65572 0.0025 
849 1 0.00624995 0.00414871 0.00848531 0 0 0 -0.129616 0.23903 -0.56687 0 0 -0.00160516 58.9659 52.5237 -8.29232 0.0025 
1006 1 0.0269623 0.00279436 0.00730864 0 0 0 0.321227 0.329887 0.191481 0 0 -0.00160516 21.2568 66.1879 0.025916 0.0025 
844 1 0.0332217 0.00036168 0.00790626 0 0 0 0.46455 -0.46567 0.162901 -0.0632264 0.0132304 0.00241257 33.1522 47.0857 15.4422 0.0025 
176 1 0.0103792 0.00525836 0.0114665 0 0 0 -0.806902 -0.232374 0.04498 -0.175782 0.0302875 -0.33058 -70.0752 0.149172 8.1142 0.0025 
1321 1 0.0197754 0.00497354 0.00767111 0 0 0 0.741465 0.264777 0.195705 0 0 -0.00160516 24.6426 -17.7509 21.6904 0.0025 
1106 1 0.0346138 0.00829794 0.00837469 0 0 0 -0.103078 0.528708 -0.517126 0 0 -0.00160516 34.0908 -42.3103 14.9665 0.0025 
796 1 -0.0409335 0.00993617 0.00617373 0 0 0 -0.291517 0.507194 -0.379737 0 0 -0.00160516 43.5074 27.032 3.41546 0.0025 
91 1 -0.0241485 0.00762787 0.00890303 0 0 0 0.38851 0.0993542 -0.305765 0 0 -0.00160516 -1.80139 22.8231 -8.18958 0.0025 
519 1 -0.019987 0.0100336 0.00744986 0 0 0 -0.37713 0.271058 -0.445936 0 0 -0.00160516 22.0814 -14.7415 52.6951 0.0025 
897 1 -0.0149639 0.00895893 0.00698596 0 0 0 -0.346326 -0.531653 0.0256442 0 0 -0.00160516 76.5724 16.9636 -42.1277 0.0025 
870 1 0.00362845 0.0084879 0.0109407 0 0 0 0.125312 0.255842 0.267426 0.0357272 -0.0175232 0.0309437 -33.9305 21.9008 -21.2263 0.0025 
22 1 0.014909 0.00960807 0.00945506 0 0 0 -0.116428 -0.110477 -0.066996 0 0 -0.00160516 -36.9497 30.8215 -17.3232 0.0025 
1761 1 -0.0295749 0.0115709 0.00696027 0 0 0 0.103437 0.413417 -0.221094 0.100585 -0.00643277 0.157616 -81.6392 45.922 9.5608 0.0025 
821 1 -0.0101252 0.0110665 0.00608115 0 0 0 -0.0659505 -0.0425794 -0.171468 0 0 -0.00160516 -5.25336 -44.1223 -4.60747 0.0025 
270 1 -0.00477913 0.0106076 0.00819911 0 0 0 -0.110332 -0.36073 -0.208303 -0.145294 0.0173386 0.0164058 2.84661 -11.1681 28.5263 0.0025 
946 1 0.00723237 0.0127384 0.0100702 0 0 0 0.294809 0.0161023 -0.23728 0.0355439 0.028054 -0.16665 -2.1952 -5.84977 27.363 0.0025 
159 1 -0.0361276 0.017195 0.00675094 0 0 0 -0.35128 -0.152733 -0.338709 0 0 -0.00160516 17.3859 -18.5431 8.41123 0.0025 
1600 1 -0.0265121 0.0158452 0.00613974 0 0 0 -0.33546 -0.0268663 -0.822459 -9.4923e-06 0.000101918 -0.00156224 -22.3127 -5.65221 -11.786 0.0025 
694 1 -0.0167088 0.013617 0.00919474 0 0 0 0.391122 -0.204519 -0.496492 0 0 -0.00160516 -12.1103 -56.8819 -54.6357 0.0025 
537 1 -0.00382128 0.0157273 0.00706869 0 0 0 0.145905 -0.227384 -0.514564 0 0 -0.00160516 -37.3863 34.2743 11.7767 0.0025 
1402 1 0.0016171 0.0158604 0.00731147 0 0 0 -0.289133 -0.0953833 -0.0540637 0 0 -0.00160516 -0.201626 10.9374 10.9234 0.0025 
229 1 0.0205694 0.0158054 0.00621565 0 0 0 0.427608 -0.164373 -0.562591 0 0 -0.00160516 47.7721 -9.962 20.0123 0.0025 
1564 1 -0.027139 0.0204665 0.00792597 0 0 0 0.0207506 0.277693 -0.469882 9.4923e-06 -0.000101918 -0.00164808 3.98447 4.67381 -7.23103 0.0025 
1637 1 -0.0203799 0.0226763 0.00822821 0 0 0 0.355723 0.402637 -0.380048 0 0 -0.00160516 17.576 42.2159 -22.1461 0.0025 
850 1 -0.00136457 0.0202598 0.00922078 0 0 0 0.0846459 0.101652 -0.378794 0 0 -0.00160516 -27.5235 33.2949 -14.4721 0.0025 
1243 1 0.00759344 0.0193023 0.0083532 0 0 0 0.324072 -0.051897 -0.367081 0 0 -0.00160516 16.5149 22.0899 -3.00453 0.0025 
343 1 0.0155834 0.0190819 0.00734012 0 0 0 -0.366771 -0.17423 0.182856 0 0 -0.00160516 -5.22185 -23.7807 2.41282 0.0025 
1721 1 0.0204538 0.0201007 0.0088522 0 0 0 -0.490684 -0.062335 -0.374023 0.00295142 -0.00715716 0.0152335 17.4653 -17.1503 29.9945 0.0025 
83 1 0.0266755 0.0203588 0.0074107 0 0 0 0.175806 0.311702 -0.353986 0 0 -0.00160516 -33.1669 31.7905 35.0835 0.0025 
1428 1 -0.0239741 0.026103 0.0102443 0 0 0 0.322805 0.440753 0.16709 0 0 -0.00160516 21.2998 -16.674 -2.4469 0.0025 
276 1 -0.0123761 0.023846 0.0085573 0 0 0 -0.575491 0.0958366 -0.0848213 0 0 -0.00160516 54.9536 -37.1702 32.2819 0.0025 
335 1 0.0295176 0.0265462 0.00856407 0 0 0 0.167138 0.270804 -0.0682544 0 0 -0.00160516 -20.9516 -23.4 -25.4189 0.0025 
1351 1 -0.0315229 0.028876 0.006943 0 0 0 -0.567855 0.0326995 0.0657778 0 0 -0.00160516 65.0323 -18.4454 -5.94221 0.0025 
958 1 -0.00280642 0.0290044 0.00919441 0 0 0 -0.0871969 -0.0685693 0.431394 0 0 -0.00160516 -27.6362 -30.7584 71.8167 0.0025 
151 1 0.00804019 0.0248305 0.00718572 0 0 0 -0.123579 -0.440909 -0.374574 0 0 -0.00160516 26.5218 -28.6684 30.7865 0.0025 
1690 1 0.0210547 0.0265157 0.00941888 0 0 0 0.0670977 0.0268347 0.051687 0 0 -0.00160516 58.0371 3.40854 -6.89032 0.0025 
654 1 -0.0249217 0.0316405 0.00925981 0 0 0 0.0408291 0.0573871 0.16579 0 0 -0.00160516 22.7507 37.148 -3.39625 0.0025 
280 1 -0.0153362 0.0319606 0.0070593 0 0 0 -0.101623 0.235915 -0.374697 0 0 -0.00160516 -32.5507 13.8087 -19.2505 0.0025 
300 1 -0.0103201 0.0290706 0.00609992 0 0 0 0.421926 -0.139431 -0.441414 0 0 -0.00160516 -7.5484 -10.231 -15.1071 0.0025 
963 1 0.00181842 0.0325661 0.00861746 0 0 0 0.190067 0.592141 0.274068 0 0 -0.00160516 5.2143 -39.1784 -15.4558 0.0025 
1294 1 0.0172738 0.029809 0.0096544 0 0 0 -0.0107129 0.49066 0.141037 0.135434 -0.0698967 -0.299725 -46.5024 -30.8489 -34.9477 0.0025 
839 1 0.0253617 0.0314284 0.00820738 0 0 0 -0.290689 0.398468 -0.0677061 0 0 -0.00160516 -17.0944 -34.0385 12.8707 0.0025 
111 1 0.0325478 0.0310262 0.00875906 0 0 0 0.265939 0.376261 -0.474996 0 0 -0.00160516 -19.6809 1.73352 16.8414 0.0025 
232 1 -0.0111648 0.0350731 0.00743266 0 0 0 -0.135831 -0.190251 -0.500903 0 0 -0.00160516 16.7035 -4.61365 16.5289 0.0025 
1533 1 -0.00550557 0.0353741 0.00711834 0 0 0 -0.0840795 -0.057944 -0.534116 -0.00331018 0.0583966 0.0530511 54.134 15.8361 10.1219 0.0025 
1176 1 -0.011107 0.0433875 0.00730934 0 0 0 -0.59331 0.382062 -0.140672 0 0 -0.00160516 4.88221 -53.1649 17.1058 0.0025 
1287 1 -0.00203444 0.0423604 0.00754393 0 0 0 0.0612351 0.484145 -0.382984 0 0 -0.00160516 37.5112 -42.8517 12.4155 0.0025 
597 1 0.00277062 0.0403314 0.00769212 0 0 0 0.186987 0.149119 -0.728854 0 0 -0.00160516 33.4865 -32.5756 6.2033 0.0025 
1037 1 -0.00280998 -0.0442171 0.0104609 0 0 0 0.172992 -0.424908 -0.444302 0 0 -0.00160516 24.8377 9.30399 -1.18017 0.0025 
896 1 -0.0164807 -0.0362918 0.0135679 0 0 0 -0.0461059 0.231919 -0.66344 0 0 -0.00160516 22.1763 29.135 -13.2671 0.0025 
1325 1 -0.0110871 -0.0362946 0.013439 0 0 0 0.3259 -0.00683115 0.218397 0 0 -0.00160516 -0.40988 7.82752 3.05173 0.0025 
678 1 0.0175762 -0.0360014 0.0103151 0 0 0 -0.0918659 0.0734798 -0.708591 0 0 -0.00160516 27.7649 5.94615 16.6289 0.0025 
1444 1 -0.02151 -0.0319202 0.0116089 0 0 0 0.165687 -0.0836735 0.0241858 0.00942426 -0.00357548 -0.00287734 -19.5785 -18.991 7.06853 0.0025 
634 1 -0.00244596 -0.0276214 0.013751 0 0 0 -0.229407 0.2734 0.469767 0 0 -0.00160516 -47.0489 -45.2793 9.04808 0.0025 