ITEM: TIMESTEP
4000
ITEM: NUMBER OF ATOMS
1800
ITEM: BOX BOUNDS mm mm mm
-0.05 0.05
-0.05 0.05
0 0.15
ITEM: ATOMS id type x y z ix iy iz vx vy vz fx fy fz omegax omegay omegaz radius 
1168 1 -0.00414542 -0.0460295 0.00466312 0 0 0 -0.181734 0.7346 0.194406 0.0323735 0.0198475 -0.0883114 77.6638 46.0884 70.8021 0.0025 
817 1 0.0154087 -0.0444638 0.00293628 0 0 0 0.171008 0.024737 -0.269746 0 0 -0.00160516 88.1068 49.8597 -4.31108 0.0025 
194 1 -0.0213848 -0.041143 0.00477419 0 0 0 -0.0704855 -0.408076 -0.13983 0 0 -0.00160516 -115.93 20.9378 38.4298 0.0025 
1708 1 -0.0107601 -0.0401062 0.00554317 0 0 0 -0.528148 -0.201742 -0.267698 0 0 -0.00160516 105.503 114.252 -52.6671 0.0025 
149 1 -0.00102231 -0.0408493 0.00327918 0 0 0 -0.221178 0.00612807 -0.0395802 0 0 -0.00160516 -9.22448 69.156 70.6017 0.0025 
182 1 -0.00736288 -0.0348054 0.00360879 0 0 0 -0.336037 -0.269444 0.0839561 0 0 -0.00160516 75.1063 -34.8516 -27.8257 0.0025 
76 1 -0.00222748 -0.0328344 0.00245984 0 0 0 0.328554 -0.574066 0.0333012 -0.00278661 0.000581312 0.0486483 15.8427 16.1507 48.9793 0.0025 
10 1 0.014555 -0.0314629 0.00431083 0 0 0 0.104838 0.307797 -0.242446 0.0246979 0.0351043 -0.0611964 -13.1898 -19.3066 16.9343 0.0025 
1585 1 -0.0374263 -0.0283213 0.00406525 0 0 0 0.211241 0.134462 0.198974 0 0 -0.00160516 -23.3592 -31.9267 -26.9084 0.0025 
1418 1 -0.016311 -0.0316731 0.00399577 0 0 0 0.120552 -0.341292 -0.102355 0.0135734 -0.100726 -0.0284366 39.0623 -0.907862 25.9657 0.0025 
196 1 0.00692759 -0.0257431 0.00269999 0 0 0 0.42544 -0.232349 -0.361872 0 0 -0.00160516 49.3303 -22.3055 -27.1415 0.0025 
886 1 0.0191918 -0.0278419 0.00321575 0 0 0 0.374491 -0.530411 -0.258036 0 0 -0.00160516 -59.2244 15.8987 16.1164 0.0025 
1740 1 0.0237973 -0.0253285 0.00450303 0 0 0 0.157788 -0.270317 0.378193 0 0 -0.00160516 -27.3279 -22.1846 -23.8356 0.0025 
603 1 -0.0056378 -0.0291727 0.00354703 0 0 0 -0.433232 -0.174789 0.293161 0 0 -0.00160516 82.3206 -24.3238 35.1842 0.0025 
1036 1 -0.0416888 -0.0192778 0.00375126 0 0 0 -0.102917 -0.107917 -0.202378 0 0 -0.00160516 -7.12947 -64.7179 -13.241 0.0025 
1679 1 -0.0339606 -0.020733 0.00321718 0 0 0 -0.101898 -0.0881943 -0.11426 0 0 -0.00160516 54.8058 -59.4001 6.92804 0.0025 
1532 1 -0.0180115 -0.0181517 0.00240677 0 0 0 -0.185571 0.29985 -1.08932 0.00492761 -0.00933563 0.209521 135.386 60.3468 -30.3788 0.0025 
1303 1 0.0093827 -0.0188302 0.00298842 0 0 0 0.296274 -0.612018 0.413999 0 0 -0.00160516 11.6075 -80.6854 -4.72328 0.0025 
364 1 0.0160788 -0.0222152 0.00318018 0 0 0 0.118759 -0.272401 -0.0313058 0 0 -0.00160516 43.5563 -45.516 84.2614 0.0025 
1751 1 -0.00687413 -0.0149604 0.00351327 0 0 0 -0.266795 -0.548638 -0.115872 0 0 -0.00160516 -38.8501 -81.1778 -57.9678 0.0025 
420 1 -0.0277443 -0.0164084 0.00268197 0 0 0 -0.0452812 -0.402646 0.312838 -0.00657368 0.00352393 -0.0285816 32.9936 11.7773 -1.3156 0.0025 
704 1 -0.0157488 -0.0129558 0.00485612 0 0 0 -0.47889 -0.0398751 0.100858 0 0 -0.00160516 15.277 -32.1331 2.08461 0.0025 
1490 1 -0.000269656 -0.0131059 0.00323561 0 0 0 0.205266 0.213905 0.0425862 0 0 -0.00160516 -42.1805 13.8507 -25.9846 0.0025 
311 1 0.0100941 -0.0138062 0.00261193 0 0 0 0.488576 -0.0393378 0.00227946 0 0 -0.00160516 -70.1366 -61.8588 -47.0668 0.0025 
1392 1 0.0314866 -0.0140229 0.00278711 0 0 0 0.590657 -0.0598365 -0.168112 0 0 -0.00160516 77.8963 2.8237 -33.8018 0.0025 
785 1 0.00482132 -0.00870097 0.0026484 0 0 0 -0.117626 0.27808 0.582359 0 0 -0.00160516 -16.9829 -19.2811 -13.8734 0.0025 
1626 1 0.0199137 -0.00435827 0.00280423 0 0 0 -0.0995119 0.578681 -0.000286626 0 0 -0.00160516 -64.9026 15.0346 59.0361 0.0025 
1226 1 0.04389 -0.00686004 0.0025487 0 0 0 0.00555187 0.438513 0.0960439 0 0 -0.00160516 16.1681 -69.089 18.5651 0.0025 
517 1 -0.0269974 -0.00575713 0.00253615 0 0 0 -0.0673306 -0.39107 0.122987 -0.000677935 0.00270144 -0.0022169 63.242 34.0879 25.9784 0.0025 
1145 1 0.000879146 -0.00567714 0.0038226 0 0 0 0.192313 0.301295 0.336117 0 0 -0.00160516 -70.4422 64.9032 58.3857 0.0025 
1711 1 0.0259733 -0.00619415 0.00329922 0 0 0 -0.156717 -0.0359239 0.121947 0 0 -0.00160516 1.56979 -7.83319 10.5102 0.0025 
251 1 0.0309518 -0.00152547 0.00387732 0 0 0 -0.143114 -0.0277013 0.00297317 0 0 -0.00160516 -3.61579 -25.5306 -13.6435 0.0025 
1016 1 -0.0250701 0.00411886 0.00267935 0 0 0 -0.0719072 -0.0187713 0.338648 0 0 -0.00160516 -7.7285 -22.1617 -14.8501 0.0025 
864 1 -0.00803942 -0.000635003 0.00561325 0 0 0 0.225802 0.305775 0.086591 0 0 -0.00160516 91.8051 -16.6607 -18.7946 0.0025 
1643 1 0.0164627 0.000703264 0.0028795 0 0 0 -0.155902 0.133254 -0.0876022 0 0 -0.00160516 53.0753 -22.3336 20.2938 0.0025 
1557 1 0.0266874 0.00147811 0.0023332 0 0 0 0.163798 -0.0124966 0.193235 0.161213 -0.218801 0.251615 -34.6606 28.4299 15.4585 0.0025 
1497 1 0.0380237 0.000402848 0.00384561 0 0 0 0.263041 -0.225455 -0.0393343 -0.0501096 -0.119135 -0.178877 -2.23426 -14.8312 -0.5925 0.0025 
436 1 -0.0410044 0.00566549 0.00271118 0 0 0 0.18716 -0.0653766 -0.39413 0 0 -0.00160516 23.431 -89.5 29.4785 0.0025 
202 1 -0.0167252 0.00878085 0.00294495 0 0 0 -0.287232 0.212234 -0.0756296 0 0 -0.00160516 -74.9991 51.107 -24.9846 0.0025 
949 1 0.000136437 0.00642082 0.00298218 0 0 0 0.0517999 -0.200745 -0.406486 0 0 -0.00160516 -20.461 41.7716 -14.0329 0.0025 
315 1 0.00500626 0.00823576 0.00333488 0 0 0 -0.279742 0.27609 -0.194385 0 0 -0.00160516 -74.6012 -0.256031 3.59305 0.0025 
1494 1 0.0175443 0.0064142 0.0030003 0 0 0 0.151198 0.439125 -0.47904 0.142481 0.033291 -0.410984 -110.6 -13.0607 -13.6842 0.0025 
473 1 0.0309987 0.00555595 0.0028316 0 0 0 0.213486 0.143873 -0.0337737 0 0 -0.00160516 -32.9033 -31.2828 0.192009 0.0025 
516 1 -0.0230019 0.00909644 0.00349349 0 0 0 -0.0421194 -0.0324325 0.451712 0 0 -0.00160516 -16.678 -2.66978 -7.18847 0.0025 
796 1 -0.0429473 0.0101729 0.00515957 0 0 0 -0.0110161 0.087687 0.140832 0 0 -0.00160516 93.7104 -12.4938 -36.8286 0.0025 
447 1 -0.0327154 0.0111654 0.00283173 0 0 0 -0.317525 -0.155975 -0.00651611 0 0 -0.00160516 38.5707 7.73383 -4.30858 0.0025 
565 1 -0.0160539 0.0145075 0.00306955 0 0 0 0.261822 -0.0200399 -0.745709 0 0 -0.00160516 -43.6188 7.14391 -1.04128 0.0025 
685 1 -0.00579168 0.0122162 0.00273859 0 0 0 0.277465 0.0775323 0.283839 0 0 -0.00160516 -20.6461 41.8238 19.6153 0.0025 
430 1 0.0162119 0.0126176 0.00340792 0 0 0 0.166953 -0.0623148 -0.153359 -0.0220708 0.00313135 -0.106699 15.9723 31.1284 19.9829 0.0025 
1600 1 -0.0270002 0.0188795 0.00297209 0 0 0 -0.00454678 0.506963 -0.0475394 0 0 -0.00160516 34.1165 63.0425 29.4606 0.0025 
49 1 -0.00810545 0.0167114 0.00240302 0 0 0 0.196934 0.216023 0.0892893 -0.00359063 -0.00921669 0.196223 16.3065 39.6597 -21.7601 0.0025 
1245 1 3.33558e-05 0.0170864 0.00241052 0 0 0 0.192175 -0.269817 -0.172644 -0.00377607 0.0082021 0.178986 -69.7371 -4.43588 18.5852 0.0025 
229 1 0.0263141 0.0136506 0.00687946 0 0 0 0.0342431 -0.0775397 0.0650777 0 0 -0.00160516 34.4958 63.7691 29.5278 0.0025 
679 1 -0.0194951 0.0202794 0.00263606 0 0 0 0.224435 0.253587 0.279676 0 0 -0.00160516 -45.3198 47.3856 -15.0518 0.0025 
756 1 -0.0380928 0.0257146 0.00888558 0 0 0 -0.232477 -0.00439921 0.57945 0 0 -0.00160516 -33.0947 -45.383 20.3456 0.0025 
1306 1 -0.025065 0.0259037 0.00272212 0 0 0 -0.0600806 0.121101 -0.0155711 0 0 -0.00160516 19.2104 -63.6361 3.33291 0.0025 
1163 1 -0.0135037 0.0263703 0.00343888 0 0 0 0.0694992 0.369978 -0.0491005 0 0 -0.00160516 7.30866 -45.9845 26.8416 0.0025 
387 1 0.00419021 0.0220064 0.00283196 0 0 0 0.0428607 0.0602463 0.329783 -0.0722972 0.10004 -0.0370472 44.388 -51.3046 -28.2904 0.0025 
1753 1 0.0205396 0.0252233 0.00505638 0 0 0 0.0377397 0.18506 0.238411 0 0 -0.00160516 28.1127 4.99082 18.8879 0.0025 
1685 1 -0.0329764 0.0278302 0.00259079 0 0 0 -0.144859 -0.228384 -0.395777 0 0 -0.00160516 -36.835 27.9081 -14.0361 0.0025 
1412 1 -0.00647453 0.0281336 0.00386256 0 0 0 0.0128151 0.201102 0.0962928 0 0 -0.00160516 63.0729 -2.97486 -43.9094 0.0025 
1058 1 0.0110536 0.0290992 0.00333749 0 0 0 -0.312287 0.289066 -0.236796 0 0 -0.00160516 -3.71375 39.6507 -10.1716 0.0025 
1400 1 0.0281376 0.0248136 0.00269368 0 0 0 0.181941 -0.109801 -0.163756 0 0 -0.00160516 -5.85412 -1.18055 -85.0775 0.0025 
1789 1 0.0375613 0.0284879 0.00460323 0 0 0 0.00882465 0.507297 -0.00695139 0 0 -0.00160516 -51.207 56.5219 1.45136 0.0025 
258 1 -0.025574 0.0339662 0.00485168 0 0 0 -0.780167 0.625536 0.0977387 0 0 -0.00160516 47.0157 -46.3951 -51.4517 0.0025 
361 1 0.0200308 0.0320897 0.00252017 0 0 0 -0.143662 0.348873 -0.335847 0 0 -0.00160516 -21.9364 22.0775 -28.2555 0.0025 
218 1 0.030205 0.0298402 0.00461676 0 0 0 -0.433766 0.123102 0.217515 0 0 -0.00160516 -14.5479 51.0764 10.036 0.0025 
1457 1 0.0263891 0.0382888 0.00245339 0 0 0 -0.202317 -0.620631 -0.124709 0.000447816 0.00340772 0.0671351 17.9975 -51.1183 31.5431 0.0025 
597 1 0.000541606 0.0401421 0.00485513 0 0 0 -0.0286456 -0.00739226 0.260533 0.00249021 -0.00985429 0.00113411 3.71378 -94.7987 -10.9996 0.0025 
193 1 -0.0083888 0.0425129 0.00250189 0 0 0 0.447508 -0.0747993 -0.348061 0 0 -0.00160516 32.7253 -11.5725 -81.055 0.0025 
1181 1 0.00981452 0.0444743 0.00276576 0 0 0 -0.00234821 -0.429602 0.53548 0 0 -0.00160516 116.147 -12.4781 69.304 0.0025 
1749 1 -0.0102342 -0.0448061 0.00721403 0 0 0 -2.31373e-05 0.152902 0.00655919 0 0 -0.00160516 -3.07447 -4.91114 -54.6972 0.0025 
62 1 -0.0166826 -0.0441948 0.00461026 0 0 0 -0.182737 -0.442118 -0.287182 0 0 -0.00160516 26.3913 3.44493 8.37711 0.0025 
823 1 0.00428781 -0.0447316 0.00480946 0 0 0 -0.201699 -0.386302 -0.246093 0 0 -0.00160516 -25.8069 0.514606 15.8773 0.0025 
187 1 0.0186777 -0.0419865 0.00639843 0 0 0 0.364982 -0.328983 -0.34589 0 0 -0.00160516 -16.3091 21.7631 8.71122 0.0025 
1617 1 0.00718116 -0.0366975 0.00646389 0 0 0 -0.348289 0.139618 -0.371521 0 0 -0.00160516 58.3237 -16.3054 -36.6816 0.0025 
1768 1 -0.0332664 -0.0328855 0.00435706 0 0 0 0.284312 0.529026 -0.237037 0 0 -0.00160516 -51.4778 33.3802 -79.4718 0.0025 
235 1 -0.0279715 -0.0369866 0.0025776 0 0 0 0.536307 0.145986 0.0535571 0 0 -0.00160516 -59.5537 -10.1019 -34.4502 0.0025 
566 1 -0.022102 -0.0345666 0.00554451 0 0 0 -0.0939738 0.00180474 -0.557225 0 0 -0.00160516 17.6351 6.97444 -11.6049 0.0025 
1278 1 -0.0131749 -0.0364278 0.00290561 0 0 0 0.191582 -0.578399 -0.552611 0 0 -0.00160516 91.8853 3.3632 -43.4025 0.0025 
1443 1 -0.00330547 -0.0377331 0.00769192 0 0 0 0.262084 0.105391 0.0183293 -0.621565 0.0200657 -0.342988 17.6103 -42.9672 -7.32635 0.0025 
71 1 0.0289915 -0.0358222 0.00461613 0 0 0 -0.521011 0.223519 -0.00859716 0 0 -0.00160516 1.87211 62.3653 -1.97133 0.0025 
15 1 -0.00011988 -0.0300807 0.00605785 0 0 0 -0.50948 -0.393199 -0.297281 0.00153673 0.00173494 0.000780585 11.1012 25.5104 -32.4023 0.0025 
1030 1 0.00309127 -0.0344765 0.00239571 0 0 0 -0.104649 0.17654 -0.140665 0.00457997 -0.0103168 0.224149 43.1266 8.41595 -10.5755 0.0025 
1131 1 0.00806909 -0.0319762 0.00330769 0 0 0 -0.326885 0.0314634 -0.467256 0 0 -0.00160516 13.6699 -42.0375 -7.91542 0.0025 
75 1 0.022164 -0.0324159 0.00423103 0 0 0 0.266995 -0.0643825 0.599433 0 0 -0.00160516 20.2195 91.7784 1.56327 0.0025 
1665 1 0.0346065 -0.0300634 0.00734606 0 0 0 -0.375266 -0.120071 -0.0293095 0.205312 -0.0831055 0.0862068 24.0702 6.784 -38.4585 0.0025 
9 1 0.0304159 -0.0281941 0.00572437 0 0 0 0.344938 -0.207198 0.326613 -0.205312 0.0831055 -0.0894171 -11.4306 -9.9002 -12.5958 0.0025 
567 1 -0.0265771 -0.0249682 0.00758467 0 0 0 0.120754 -0.0546861 0.118358 0 0 -0.00160516 17.5888 -41.9239 81.2175 0.0025 
444 1 -0.0171838 -0.0269836 0.00519386 0 0 0 -0.496033 -0.110496 0.0191845 -0.0135734 0.100726 0.0252263 27.4362 -4.82 3.68816 0.0025 
1568 1 -0.00400831 -0.0234744 0.00350915 0 0 0 0.00477831 -0.494523 -0.433445 0 0 -0.00160516 -64.8444 9.71992 -56.4604 0.0025 
740 1 0.0124544 -0.0261091 0.00361774 0 0 0 0.0490378 -0.369013 0.298513 0 0 -0.00160516 25.4993 -3.97883 -4.64315 0.0025 
1256 1 0.0214603 -0.0199152 0.0067085 0 0 0 0.0746523 0.405081 0.256829 0 0 -0.00160516 -12.0014 -41.1316 -7.70915 0.0025 
342 1 0.0316194 -0.0225849 0.00540449 0 0 0 0.373556 -0.173829 -0.224425 0 0 -0.00160516 32.8221 -1.72881 -29.0735 0.0025 
693 1 -0.0373179 -0.0166518 0.00457863 0 0 0 -0.33423 -0.441098 -0.169509 0 0 -0.00160516 13.3918 -47.2761 30.0791 0.0025 
1002 1 -0.0299006 -0.0240355 0.0026304 0 0 0 -0.34625 -0.571159 0.402939 0 0 -0.00160516 -62.2677 -53.7552 15.969 0.0025 
54 1 -0.0208581 -0.0131275 0.00350504 0 0 0 0.510112 -0.139345 -0.204135 0 0 -0.00160516 22.2066 -47.3604 63.8767 0.0025 
1391 1 -0.00288342 -0.0181837 0.00327504 0 0 0 -0.470758 -0.0476332 0.389241 0 0 -0.00160516 19.9891 47.3109 25.2291 0.0025 
1478 1 0.00492095 -0.0166097 0.00339529 0 0 0 0.384892 0.0323485 0.0993521 0 0 -0.00160516 33.3767 8.64443 -40.013 0.0025 
322 1 0.0168606 -0.0174123 0.00589098 0 0 0 0.200201 -0.487411 -0.139286 0 0 -0.00160516 9.02034 -9.75225 -72.6065 0.0025 
960 1 0.0210603 -0.0117265 0.00461049 0 0 0 -0.0235296 -0.3599 0.0487304 0 0 -0.00160516 -88.06 -7.88823 15.3276 0.0025 
514 1 -0.0378278 -0.00943211 0.0049943 0 0 0 -0.083201 0.21822 0.447452 0 0 -0.00160516 2.96255 1.11298 -24.5783 0.0025 
1491 1 -0.0119308 -0.00948747 0.00797934 0 0 0 -0.0214385 0.146585 -0.0932982 0.0155238 -0.0132713 -0.0450856 -5.64642 -26.802 -19.4127 0.0025 
1085 1 0.0391755 -0.0140104 0.00604274 0 0 0 -0.148666 -0.316064 0.0115471 0 0 -0.00160516 30.9193 37.5611 21.4829 0.0025 
744 1 -0.0307328 -0.00875432 0.00469563 0 0 0 -0.0944537 0.00743694 0.260746 0 0 -0.00160516 -81.8674 36.6538 -29.6589 0.0025 
1754 1 -0.0259784 -0.0105643 0.00343968 0 0 0 -0.261486 -0.198356 -0.448489 0.000677935 -0.00270144 -0.000993413 1.60727 -38.2957 71.5454 0.0025 
368 1 0.0157853 -0.0119829 0.00408563 0 0 0 0.189517 0.277935 0.0310719 0 0 -0.00160516 49.6021 -53.0313 33.0878 0.0025 
792 1 -0.0431054 -0.00725721 0.00601441 0 0 0 -0.534759 -0.0865812 0.68981 0 0 -0.00160516 48.4643 -72.061 -18.3207 0.0025 
1411 1 -0.0172764 -0.0065414 0.0025777 0 0 0 0.254502 0.0470665 -0.253881 0 0 -0.00160516 -41.7092 43.1719 -55.8713 0.0025 
1358 1 -0.0117556 -0.00746273 0.0026039 0 0 0 0.202604 0.0553928 -0.394105 0 0 -0.00160516 -27.3679 65.7544 -18.9769 0.0025 
53 1 0.0112041 -0.00336605 0.00500309 0 0 0 -0.381277 -0.101634 0.0369402 0 0 -0.00160516 -31.8501 -53.6593 -7.33597 0.0025 
836 1 0.0375726 -0.00411965 0.00630586 0 0 0 0.0237191 0.487716 0.0614522 0 0 -0.00160516 12.1125 25.003 -23.7873 0.0025 
267 1 -0.0365043 -0.000905714 0.00389242 0 0 0 -0.812317 0.268047 -0.305847 0 0 -0.00160516 46.9532 0.89763 13.4673 0.0025 
133 1 -0.0207316 -0.00257917 0.00277189 0 0 0 -0.261208 0.0168688 0.440736 0 0 -0.00160516 2.73742 -72.9168 17.7928 0.0025 
47 1 -0.00436857 -0.00718006 0.00298973 0 0 0 0.21281 -0.551672 -0.836463 0 0 -0.00160516 -7.85994 -23.3297 23.3533 0.0025 
1109 1 -0.00349755 -0.00180365 0.0036161 0 0 0 0.102221 0.390425 -0.0512406 0 0 -0.00160516 49.806 -18.2687 9.86485 0.0025 
1153 1 0.00517606 -0.00405827 0.00736465 0 0 0 -0.0864092 -0.542799 0.114889 0 0 -0.00160516 -48.1637 -36.3757 98.2019 0.0025 
645 1 0.00596528 -0.00142451 0.00276248 0 0 0 -0.283541 0.0751615 0.145602 0 0 -0.00160516 2.27251 -38.7334 1.57757 0.0025 
400 1 -0.0294648 0.000736315 0.00402038 0 0 0 -0.293149 -0.0483183 0.29264 0 0 -0.00160516 17.0595 -106.824 20.4567 0.0025 
1515 1 -0.0165116 0.00069797 0.00298034 0 0 0 -0.0900552 0.0665276 -0.570357 0 0 -0.00160516 -4.63757 -13.0714 20.3104 0.0025 
831 1 -0.0117247 0.00455555 0.00466764 0 0 0 -0.262899 -0.0469047 -0.22985 0 0 -0.00160516 -81.8466 -11.704 -35.5348 0.0025 
849 1 0.00210452 0.00177009 0.00431682 0 0 0 0.260536 0.10504 -0.337385 0 0 -0.00160516 90.9187 -1.51251 -40.4536 0.0025 
1021 1 0.0122922 0.00496491 0.00283895 0 0 0 0.269892 0.0351928 0.364514 0 0 -0.00160516 -16.0887 -34.4234 -41.9041 0.0025 
1321 1 0.0241278 0.00439862 0.00520425 0 0 0 0.230209 -0.245293 -0.179129 -0.180042 0.206881 0.190863 38.615 -65.6828 11.6398 0.0025 
1106 1 0.0367718 0.00963048 0.00349974 0 0 0 0.503733 0.828768 -0.18771 0 0 -0.00160516 13.0277 -23.3332 35.0244 0.0025 
122 1 0.0451306 0.00618773 0.00560747 0 0 0 -0.444629 0.0811226 0.667534 0 0 -0.00160516 -50.45 2.02742 4.91382 0.0025 
821 1 -0.0117453 0.00958767 0.00402016 0 0 0 -0.150646 0.282574 0.0926202 0.164532 0.0676827 -0.268945 -9.98142 55.3044 -32.0512 0.0025 
270 1 -0.00508997 0.00790844 0.00540805 0 0 0 -0.156284 0.0467407 0.0314221 0 0 -0.00160516 22.3287 -3.89995 18.7453 0.0025 
294 1 0.00181922 0.0112767 0.0062671 0 0 0 0.348741 0.339859 0.00706093 0.0723957 -0.318382 -0.224446 -69.5587 -65.7448 25.9592 0.0025 
779 1 0.0222514 0.0113966 0.00413922 0 0 0 0.686001 0.475694 -0.137406 0 0 -0.00160516 34.5357 -28.0339 -36.8999 0.0025 
815 1 0.0290848 0.00892972 0.00696246 0 0 0 0.479193 -0.109272 0.195346 0 0 -0.00160516 46.4577 20.1803 11.4571 0.0025 
494 1 -0.0364536 0.00950835 0.00601236 0 0 0 -0.0445969 -0.0102312 -0.217307 -0.0350184 0.385007 -0.13942 38.8618 -19.4122 -22.0121 0.0025 
519 1 -0.0228677 0.0160391 0.00354866 0 0 0 -0.240986 -0.138207 0.0774619 0 0 -0.00160516 1.14526 21.0673 27.1326 0.0025 
1732 1 0.0052134 0.0135467 0.00255535 0 0 0 0.186128 0.0642728 -0.119762 -0.000370978 -0.000909229 -0.00191768 -24.0607 -10.7389 -1.03548 0.0025 
1344 1 0.0451805 0.0128067 0.00610099 0 0 0 0.477397 -0.226118 -0.0388866 0.258998 -0.00371253 -0.0276625 -3.05944 -14.6501 -11.8943 0.0025 
1231 1 -0.0400871 0.0227233 0.00345587 0 0 0 0.509994 0.393038 -0.158146 0 0 -0.00160516 22.4761 27.047 -28.2198 0.0025 
159 1 -0.038649 0.0157266 0.00303478 0 0 0 -0.0299044 0.14311 0.127458 0 0 -0.00160516 -18.4474 -16.4816 -9.68816 0.0025 
1261 1 -0.0210919 0.0181384 0.00877397 0 0 0 0.56706 -0.341567 -0.3815 -0.05846 -0.0665522 -0.024505 10.465 -19.8857 -12.4816 0.0025 
1402 1 0.00279711 0.016001 0.00681724 0 0 0 -0.0121718 0.283357 -0.144286 0.0645917 0.248706 0.029143 -4.96803 26.3668 32.8649 0.0025 
327 1 0.0344186 0.0176378 0.00243866 0 0 0 0.332715 -0.486513 0.10273 0.0301771 0.058984 0.0892444 -15.8304 17.7039 -47.0157 0.0025 
511 1 -0.0119906 0.0222187 0.0070862 0 0 0 -0.069822 0.686434 -0.757935 -0.00272864 -0.00339804 -0.00101841 -21.3294 110.171 0.11184 0.0025 
1414 1 -0.0069409 0.0221031 0.00408931 0 0 0 0.232597 0.422435 0.590409 -0.230615 0.047097 -0.042237 -19.0727 92.8077 23.3232 0.0025 
1243 1 0.00677735 0.018031 0.00410842 0 0 0 -0.439833 0.221169 -0.0396271 0.0726682 -0.0991305 0.0341494 34.8221 42.1805 27.204 0.0025 
1564 1 -0.0287104 0.0237233 0.00571111 0 0 0 -0.256892 -0.0552214 0.0913639 0 0 -0.00160516 -7.31607 25.2342 8.51245 0.0025 
708 1 -0.00223328 0.0210376 0.00469855 0 0 0 -0.136517 0.191911 -0.759044 0.230615 -0.047097 0.0390266 12.285 -65.4474 83.3983 0.0025 
151 1 0.00990673 0.0222461 0.0054811 0 0 0 0.0755346 0.0012733 -0.488392 0 0 -0.00160516 51.5242 -40.3381 3.60353 0.0025 
1799 1 0.0139317 0.0238851 0.00267282 0 0 0 -0.176189 -0.022643 0.376601 -0.0737112 -0.220155 -0.213043 3.92749 -18.1332 -44.7564 0.0025 
83 1 0.0296847 0.0215849 0.00665504 0 0 0 0.148685 0.161132 -0.715733 0.00646098 -0.00508313 -0.0524778 28.9727 -5.61017 22.8048 0.0025 
728 1 0.0332546 0.0251106 0.00387458 0 0 0 0.249769 0.0839871 0.222354 0.00236911 -0.00530309 -0.0141704 119.533 -43.523 37.0201 0.0025 
1351 1 -0.0359285 0.0312134 0.00608581 0 0 0 -0.148079 0.434586 0.281032 0.145334 -0.133495 -0.00981858 53.7986 38.8548 -25.0256 0.0025 
300 1 -0.010162 0.0290028 0.0100461 0 0 0 -0.155456 0.210722 0.0887784 0 0 -0.00160516 12.3834 16.9978 -31.5114 0.0025 
1520 1 -0.00139628 0.0313788 0.00614039 0 0 0 0.369445 0.16376 0.136904 0 0 -0.00160516 59.0883 19.4525 -6.39264 0.0025 
1498 1 -0.0159419 0.0373053 0.00243409 0 0 0 0.107721 0.198904 0.580786 -0.00151816 -0.00480078 0.0990971 -89.5238 46.9211 20.5685 0.0025 
1522 1 0.0158437 0.0353144 0.00260498 0 0 0 0.551865 0.327803 -0.551131 0 0 -0.00160516 73.1995 -24.4579 1.76833 0.0025 
111 1 0.0322962 0.0346477 0.00649418 0 0 0 -0.525019 0.062555 0.338561 0 0 -0.00160516 -27.5164 -13.8392 -48.3664 0.0025 
1539 1 -0.0270367 0.0390067 0.00615353 0 0 0 0.119254 -0.355895 0.0484055 0 0 -0.00160516 -1.34236 -85.4173 10.9423 0.0025 
1293 1 -0.0223004 0.0401952 0.00360863 0 0 0 0.349351 0.446395 -0.0357249 0 0 -0.00160516 -88.9776 3.71537 16.8116 0.0025 
1533 1 -0.00402163 0.038809 0.00293825 0 0 0 0.368334 0.360941 0.065475 0 0 -0.00160516 -10.9769 -57.9825 -4.97692 0.0025 
999 1 0.0102943 0.0351407 0.00241698 0 0 0 0.361461 0.0864535 -0.484034 -0.00838955 -0.000466622 0.166445 -25.1188 -33.194 6.43902 0.0025 
228 1 0.0189987 0.0398199 0.00331926 0 0 0 0.832966 -0.118031 -0.176586 0 0 -0.00160516 38.5757 -36.7065 16.2953 0.0025 
1668 1 -0.00920493 0.0453033 0.00866484 0 0 0 -0.148993 0.705625 0.324927 0 0 -0.00160516 -52.9767 32.7462 -27.7057 0.0025 
1572 1 -0.00354058 0.0409769 0.00770144 0 0 0 0.440535 0.269224 0.102351 0 0 -0.00160516 4.75283 -23.2241 -48.7653 0.0025 
1176 1 -0.016845 0.0442482 0.00526368 0 0 0 -0.243237 0.524578 -0.0046661 0 0 -0.00160516 -18.904 -39.4546 -63.0784 0.0025 
1287 1 -0.000702717 0.0447252 0.00333242 0 0 0 0.0813446 -0.485395 0.357145 -0.00249021 0.00985429 -0.00434443 116.902 -19.1502 22.7911 0.0025 
947 1 0.0139955 0.0415792 0.00315648 0 0 0 0.286434 -0.4994 -0.330261 0 0 -0.00160516 -25.9186 -52.8808 28.9252 0.0025 
1476 1 0.01498 -0.0447412 0.00927952 0 0 0 0.230485 -0.693766 0.0869446 0 0 -0.00160516 43.6283 -34.5642 -25.8897 0.0025 
896 1 -0.0173556 -0.0376242 0.00830038 0 0 0 -0.173035 -0.00217678 -0.00227805 0 0 -0.00160516 58.475 23.8825 -58.3232 0.0025 
1072 1 0.00134765 -0.0370318 0.00660452 0 0 0 -0.310102 -0.405936 0.257926 0.325259 0.0646037 -0.0722473 -3.28978 -31.539 10.1605 0.0025 
1208 1 0.00250712 -0.0330668 0.00941999 0 0 0 -0.163615 -0.219248 -0.27638 0.00816235 -0.0213683 -0.00683761 10.5075 48.3409 19.2565 0.0025 
678 1 0.0171293 -0.0361299 0.00678829 0 0 0 0.257203 0.360622 -0.274101 0.176948 -0.100986 -0.0634349 -8.43368 -43.7906 -31.1378 0.0025 
1033 1 0.0319967 -0.0348645 0.0103916 0 0 0 0.44681 0.213397 -0.186981 -0.0623892 -0.105341 -0.0855986 -17.151 -1.49249 32.8468 0.0025 
616 1 -0.0250323 -0.0299909 0.00287666 0 0 0 0.141786 0.0585044 0.765729 0 0 -0.00160516 -21.9017 79.6089 9.1961 0.0025 
1483 1 -0.0209846 -0.0280487 0.00968387 0 0 0 0.199545 -0.422413 -0.0866322 0 0 -0.00160516 2.737 -61.1151 13.3413 0.0025 
664 1 -0.012701 -0.030361 0.00963516 0 0 0 0.148526 0.0204805 -0.0776853 0 0 -0.00160516 30.3711 -9.02041 5.80273 0.0025 
120 1 0.0268918 -0.03202 0.00753606 0 0 0 0.132881 0.0357312 -0.429509 0 0 -0.00160516 14.7893 -30.1805 -7.25698 0.0025 
802 1 -0.0299778 -0.0290825 0.00701491 0 0 0 0.0782065 0.170142 -0.107472 -0.0108193 0.00850592 -0.0207484 54.0465 -8.45382 -80.6603 0.0025 
168 1 -0.0104997 -0.0278826 0.00404346 0 0 0 -0.673607 -0.429419 0.68007 0 0 -0.00160516 -38.8098 92.2313 -10.4427 0.0025 
1471 1 0.00338182 -0.0260405 0.00691054 0 0 0 0.504089 -0.170837 0.39209 0 0 -0.00160516 10.0642 -23.9431 -2.69019 0.0025 
981 1 0.0105956 -0.0281874 0.011104 0 0 0 0.416194 -0.0455349 -0.48144 0 0 -0.00160516 4.384 7.27074 0.547053 0.0025 
924 1 -0.0418841 -0.0212839 0.00954307 0 0 0 -0.579428 0.120843 0.0168646 0 0 -0.00160516 29.691 73.786 1.17931 0.0025 
1727 1 -0.0189924 -0.0227413 0.0101236 0 0 0 0.120705 0.233572 -0.32583 0 0 -0.00160516 59.5374 -35.4515 -14.8354 0.0025 
1770 1 -0.0105205 -0.0214533 0.0039738 0 0 0 0.0702244 0.482078 -0.383864 0.0144248 -0.0738602 -0.00658845 -56.0149 -49.3674 41.7594 0.0025 
359 1 -0.00580205 -0.0202384 0.00908302 0 0 0 -0.239867 -0.329776 -0.286991 0.00205155 -0.00443232 -0.00271384 46.9069 17.5938 -5.07761 0.0025 
1001 1 0.0070488 -0.0226181 0.0080382 0 0 0 -0.18531 0.210521 0.523306 0 0 -0.00160516 -51.8923 4.33392 -3.17143 0.0025 
1530 1 0.0127758 -0.0214491 0.00765028 0 0 0 0.609287 -0.300372 0.0340375 0 0 -0.00160516 51.6055 -11.4968 40.8895 0.0025 
786 1 0.0263099 -0.0251283 0.00899463 0 0 0 -0.0965907 -0.0407358 0.448172 0 0 -0.00160516 -31.631 9.52978 -12.3498 0.0025 
1383 1 0.0364078 -0.0251494 0.00900082 0 0 0 0.858375 -0.244855 0.00162687 0.0505193 -0.0608946 -0.0330813 -13.5518 -48.9426 -12.1919 0.0025 
408 1 -0.0368703 -0.0232968 0.00691514 0 0 0 -1.06764 -0.0640498 -0.194766 0 0 -0.00160516 -34.9197 -13.6499 -2.28651 0.0025 
1341 1 0.00109905 -0.021702 0.00517037 0 0 0 -0.0705372 -0.0192086 -0.428133 0 0 -0.00160516 6.86536 -49.1706 -2.95646 0.0025 
1155 1 0.0424389 -0.0204845 0.0129807 0 0 0 -0.406284 0.106066 0.352605 0 0 -0.00160516 -41.3013 114.657 28.8714 0.0025 
328 1 -0.0266382 -0.0167968 0.00751175 0 0 0 -0.190604 -0.179624 -0.0391652 -0.0204838 0.0572761 -0.00368618 -10.2889 -9.76823 8.54571 0.0025 
1447 1 -0.0148689 -0.0193726 0.00854518 0 0 0 -0.0860897 -0.364529 -0.0819001 -0.000105176 0.000273133 -0.00220681 37.8822 -52.7764 16.3508 0.0025 
778 1 -0.0116569 -0.0166701 0.00444584 0 0 0 -0.0554285 0.00824451 -0.453047 -0.0144248 0.0738602 0.00337814 18.4155 -72.8669 -31.7888 0.0025 
1004 1 0.00973388 -0.0173309 0.0084122 0 0 0 -0.00101506 0.119304 0.228574 -0.132589 -0.0105794 -0.0752178 -11.5323 -37.1631 23.7073 0.0025 
95 1 0.0203521 -0.0211266 0.0117419 0 0 0 0.108198 -0.447141 0.144181 0 0 -0.00160516 52.2128 10.6837 10.6975 0.0025 
288 1 0.0277616 -0.0169569 0.00560832 0 0 0 -0.217525 -0.455817 0.164329 0 0 -0.00160516 -77.0545 -99.773 -9.28733 0.0025 
1800 1 0.0342653 -0.0180469 0.00541674 0 0 0 0.402313 -0.464107 -0.972509 0 0 -0.00160516 58.1663 -15.8048 47.5873 0.0025 
587 1 0.0437817 -0.0155984 0.0112793 0 0 0 0.270496 -0.0693488 0.184676 0 0 -0.00160516 -2.65125 -41.8004 -0.64182 0.0025 
186 1 -0.0455644 -0.0103603 0.0120101 0 0 0 0.195266 0.119635 0.2881 0 0 -0.00160516 -2.96823 -88.4587 8.7545 0.0025 
254 1 -0.0330271 -0.0104538 0.00938621 0 0 0 -0.21045 -0.17847 -0.52223 0 0 -0.00160516 -60.301 26.4347 27.068 0.0025 
296 1 -0.0213229 -0.00711945 0.00626936 0 0 0 -0.472478 0.290908 0.0313036 -0.01113 -0.000221815 -0.00960718 33.4767 -68.8863 -65.5984 0.0025 
1227 1 -0.00658286 -0.0105047 0.00652086 0 0 0 -0.42233 -0.264103 0.0724884 -0.00871751 0.0028358 -0.00778502 -65.3547 -37.9174 20.1524 0.0025 
116 1 0.00704408 -0.0130907 0.00956095 0 0 0 -0.00661757 0.376534 -0.139598 0 0 -0.00160516 -21.1169 -58.2407 -5.76449 0.0025 
1693 1 -0.0171609 -0.00691906 0.00899352 0 0 0 -0.176858 0.312391 -0.166269 0.01113 0.000221815 0.00639686 22.7494 -10.139 -28.0096 0.0025 
562 1 0.00907938 -0.00872969 0.00654615 0 0 0 0.247675 -0.0728168 -0.0566212 0 0 -0.00160516 -7.44757 22.7013 28.3147 0.0025 
373 1 0.0213898 -0.00721774 0.00683974 0 0 0 0.022467 0.471697 -0.164333 0.0571785 -0.037902 -0.0495258 -6.23752 1.61765 -5.88136 0.0025 
1390 1 0.035415 -0.0105974 0.0036467 0 0 0 -0.152581 -0.269067 -0.610819 0 0 -0.00160516 66.5701 -85.6168 29.2996 0.0025 
1049 1 0.0441633 -0.00833952 0.00794684 0 0 0 -0.507781 0.481157 -0.0382335 0 0 -0.00160516 17.3427 11.3969 -60.8903 0.0025 
1059 1 -0.0472516 0.000600335 0.00274793 0 0 0 -0.379446 0.509887 0.697573 0 0 -0.00160516 -79.4598 -53.4792 -23.8122 0.0025 
1759 1 -0.0336433 -0.00522518 0.00696876 0 0 0 0.079906 -0.271663 -0.300981 0.139565 -0.138803 -0.394795 -36.1883 -0.55883 20.8596 0.0025 
1337 1 -0.00867645 -0.00562501 0.00618446 0 0 0 -0.128509 -0.568156 -0.393277 0 0 -0.00160516 39.0111 -25.3226 -36.9561 0.0025 
1214 1 -0.00312648 -0.00598662 0.0115731 0 0 0 0.0315664 -0.152052 0.117864 0 0 -0.00160516 -14.301 35.9285 36.4097 0.0025 
932 1 0.00266851 -0.00930703 0.00843269 0 0 0 -0.100715 -0.420505 -0.314815 0 0 -0.00160516 -23.3087 -9.95604 58.3429 0.0025 
1606 1 0.0308201 -0.0107228 0.00762482 0 0 0 -0.132815 -0.127958 -0.205608 0 0 -0.00160516 -15.033 -22.2974 -12.2528 0.0025 
29 1 -0.0389159 -0.00455437 0.00742465 0 0 0 -0.159559 -0.205396 -0.263735 0 0 -0.00160516 58.1197 13.3016 -26.6351 0.0025 
1043 1 -0.033185 -0.000282283 0.00773787 0 0 0 -0.0510575 -0.105881 -0.137219 0 0 -0.00160516 -7.61197 2.00645 -23.5498 0.0025 
901 1 -0.0263453 -0.00465311 0.00812637 0 0 0 -0.179375 -0.108263 0.238271 -0.201804 0.149273 -0.226744 -54.8968 -37.7026 23.6922 0.0025 
32 1 -0.0122405 0.00119576 0.00925027 0 0 0 -0.627552 0.0507728 0.0115529 0 0 -0.00160516 -16.8492 58.0784 -1.65936 0.0025 
1042 1 0.0173447 -0.000908042 0.00762029 0 0 0 -0.247141 -0.0973484 0.40173 -0.0286073 0.241034 -0.135754 -4.62795 37.5546 -33.7627 0.0025 
217 1 0.0270344 -0.000409541 0.00702709 0 0 0 0.146789 -0.225637 0.162412 0 0 -0.00160516 28.0281 38.5273 -36.7991 0.0025 
874 1 -0.0474645 0.00498063 0.00661231 0 0 0 0.0404133 0.121852 -0.105677 0.699897 -0.0919706 0.0284847 -13.4566 -29.5004 6.68816 0.0025 
695 1 0.00852537 0.0021113 0.00589993 0 0 0 -0.395751 -0.323942 0.153771 0 0 -0.00160516 29.3278 28.3386 -63.1621 0.0025 
844 1 0.0334298 -0.00115781 0.00901497 0 0 0 0.288096 -0.287316 -0.177196 0 0 -0.00160516 8.16367 45.3127 -3.45546 0.0025 
463 1 0.0389303 0.00317303 0.0077481 0 0 0 0.0096328 -0.0039275 -0.323898 0.0501096 0.119135 0.175666 -50.1507 75.12 -5.82585 0.0025 
1027 1 0.047378 0.00305234 0.0113331 0 0 0 0.719397 0.177656 -0.378271 0 0 -0.00160516 -31.5063 50.2285 10.4528 0.0025 
1484 1 -0.0360797 0.00492915 0.00739971 0 0 0 -0.122536 -0.77788 -0.320795 0.0350184 -0.385007 0.13621 71.4152 10.9329 -29.8219 0.0025 
1657 1 -0.0193907 -0.00143907 0.00796197 0 0 0 0.100192 -0.837818 -0.239237 0 0 -0.00160516 14.236 -23.5706 -39.1836 0.0025 
88 1 -0.00342138 0.00290451 0.00758906 0 0 0 -0.125287 -0.204134 -0.0810924 -0.00369256 -0.00697815 -0.0978964 -74.2107 -6.67114 -58.6664 0.0025 
769 1 0.0158081 0.00589121 0.00743826 0 0 0 -0.0945223 0.422976 -0.373073 -0.142481 -0.033291 0.407774 73.266 -37.9516 29.7118 0.0025 
1006 1 0.0254678 0.0048266 0.0108442 0 0 0 -0.171559 -0.0919483 0.170818 0 0 -0.00160516 4.40389 16.5489 -47.6331 0.0025 
1761 1 -0.0302872 0.00647693 0.00468491 0 0 0 -0.378312 -0.386983 -0.397855 0 0 -0.00160516 -107.062 37.136 35.278 0.0025 
91 1 -0.0259413 0.00503409 0.00769702 0 0 0 -0.0914986 0.296989 0.273916 -0.164893 0.0457319 -0.244805 21.5103 11.592 -55.2621 0.0025 